<?xml version="1.0" encoding="UTF-8"?>

<!-- generated on 2024-06-02 04:09:05 by Eclipse SUMO GUI Version 1.19.0
<configuration xmlns:xsi="http://www.w3.org/2001/XMLSchema-instance" xsi:noNamespaceSchemaLocation="http://sumo.dlr.de/xsd/sumoConfiguration.xsd">

    <input>
        <net-file value="Adapters/co_simulation/sumo_configuration/simple-map/UA.net.xml"/>
        <route-files value="Adapters/co_simulation/sumo_configuration/simple-map/carlavtypes.rou.xml,Adapters/co_simulation/sumo_configuration/simple-map/simple-map.rou.xml"/>
    </input>

    <output>
        <tripinfo-output value="tripinfo.xml"/>
    </output>

    <traci_server>
        <remote-port value="54937"/>
        <num-clients value="1"/>
    </traci_server>

    <gui_only>
        <gui-settings-file value="Adapters/co_simulation/sumo_configuration/simple-map/simple-map.view.xml"/>
        <quit-on-end value="true"/>
    </gui_only>

</configuration>
-->

<tripinfos xmlns:xsi="http://www.w3.org/2001/XMLSchema-instance" xsi:noNamespaceSchemaLocation="http://sumo.dlr.de/xsd/tripinfo_file.xsd">
    <tripinfo id="0" depart="3.00" departLane="-1466_1" departPos="5.34" departSpeed="0.00" departDelay="0.00" arrival="63.00" arrivalLane="-1427_1" arrivalPos="658.50" arrivalSpeed="14.10" duration="60.00" routeLength="796.66" waitingTime="0.00" waitingCount="0" stopTime="0.00" timeLoss="5.81" rerouteNo="0" devices="tripinfo_0" vType="vehicle.dodge.charger_police_2020" speedFactor="1.06" vaporized=""/>
    <tripinfo id="randomCar_1717297832239293320" depart="138.00" departLane="-1604_1" departPos="5.34" departSpeed="0.00" departDelay="0.00" arrival="146.00" arrivalLane="-1649_1" arrivalPos="0.20" arrivalSpeed="7.28" duration="8.00" routeLength="47.02" waitingTime="0.00" waitingCount="0" stopTime="0.00" timeLoss="2.65" rerouteNo="0" devices="tripinfo_randomCar_1717297832239293320" vType="vehicle.dodge.charger_police_2020" speedFactor="0.96" vaporized=""/>
    <tripinfo id="randomCar_1717297832463841532" depart="138.00" departLane="-1595_1" departPos="5.34" departSpeed="0.00" departDelay="0.00" arrival="153.00" arrivalLane="-1596_1" arrivalPos="134.55" arrivalSpeed="14.79" duration="15.00" routeLength="164.76" waitingTime="0.00" waitingCount="0" stopTime="0.00" timeLoss="4.03" rerouteNo="0" devices="tripinfo_randomCar_1717297832463841532" vType="vehicle.dodge.charger_police_2020" speedFactor="1.12" vaporized=""/>
    <tripinfo id="randomCar_1717297832484189942" depart="138.00" departLane="-1649_1" departPos="0.20" departSpeed="0.00" departDelay="0.00" arrival="155.00" arrivalLane="-1518_1" arrivalPos="20.08" arrivalSpeed="12.71" duration="17.00" routeLength="126.05" waitingTime="0.00" waitingCount="0" stopTime="0.00" timeLoss="9.36" rerouteNo="0" devices="tripinfo_randomCar_1717297832484189942" vType="vehicle.dodge.charger_police_2020" speedFactor="1.11" vaporized=""/>
    <tripinfo id="randomCar_1717297832258693700" depart="138.00" departLane="-1539_1" departPos="5.34" departSpeed="0.00" departDelay="0.00" arrival="159.00" arrivalLane="-1542_1" arrivalPos="1.25" arrivalSpeed="9.70" duration="21.00" routeLength="76.56" waitingTime="7.00" waitingCount="1" stopTime="0.00" timeLoss="12.80" rerouteNo="0" devices="tripinfo_randomCar_1717297832258693700" vType="vehicle.dodge.charger_police_2020" speedFactor="0.87" vaporized=""/>
    <tripinfo id="randomCar_1717297832203433186" depart="138.00" departLane="-1619_1" departPos="5.34" departSpeed="0.00" departDelay="0.00" arrival="164.00" arrivalLane=":103_0_1" arrivalPos="5.88" arrivalSpeed="4.19" duration="26.00" routeLength="60.84" waitingTime="14.00" waitingCount="1" stopTime="0.00" timeLoss="21.80" rerouteNo="0" devices="tripinfo_randomCar_1717297832203433186" vType="vehicle.dodge.charger_police_2020" speedFactor="0.85" vaporized="traci"/>
    <tripinfo id="randomCar_1717297832210187032" depart="138.00" departLane="-1433_1" departPos="5.34" departSpeed="0.00" departDelay="0.00" arrival="164.00" arrivalLane="-1433_1" arrivalPos="9.24" arrivalSpeed="0.00" duration="26.00" routeLength="3.90" waitingTime="22.00" waitingCount="1" stopTime="0.00" timeLoss="24.85" rerouteNo="0" devices="tripinfo_randomCar_1717297832210187032" vType="vehicle.dodge.charger_police_2020" speedFactor="1.17" vaporized="traci"/>
    <tripinfo id="randomCar_1717297832211939208" depart="138.00" departLane="-1421_1" departPos="5.34" departSpeed="0.00" departDelay="0.00" arrival="164.00" arrivalLane="-1607_2" arrivalPos="61.71" arrivalSpeed="13.97" duration="26.00" routeLength="241.31" waitingTime="0.00" waitingCount="0" stopTime="0.00" timeLoss="6.99" rerouteNo="0" devices="tripinfo_randomCar_1717297832211939208" vType="vehicle.dodge.charger_police_2020" speedFactor="1.02" vaporized="traci"/>
    <tripinfo id="randomCar_1717297832215476941" depart="138.00" departLane="-1587_1" departPos="5.34" departSpeed="0.00" departDelay="0.00" arrival="164.00" arrivalLane="-1619_1" arrivalPos="44.72" arrivalSpeed="0.00" duration="26.00" routeLength="65.47" waitingTime="12.00" waitingCount="1" stopTime="0.00" timeLoss="22.31" rerouteNo="0" devices="tripinfo_randomCar_1717297832215476941" vType="vehicle.dodge.charger_police_2020" speedFactor="1.10" vaporized="traci"/>
    <tripinfo id="randomCar_1717297832218655754" depart="138.00" departLane="-1504_1" departPos="5.34" departSpeed="0.00" departDelay="0.00" arrival="164.00" arrivalLane="-1616_1" arrivalPos="15.30" arrivalSpeed="8.17" duration="26.00" routeLength="204.54" waitingTime="0.00" waitingCount="0" stopTime="0.00" timeLoss="7.43" rerouteNo="0" devices="tripinfo_randomCar_1717297832218655754" vType="vehicle.dodge.charger_police_2020" speedFactor="1.00" vaporized="traci"/>
    <tripinfo id="randomCar_1717297832224249490" depart="138.00" departLane="-1474_1" departPos="5.34" departSpeed="0.00" departDelay="0.00" arrival="164.00" arrivalLane="-1467_1" arrivalPos="24.06" arrivalSpeed="21.27" duration="26.00" routeLength="423.79" waitingTime="0.00" waitingCount="0" stopTime="0.00" timeLoss="5.85" rerouteNo="0" devices="tripinfo_randomCar_1717297832224249490" vType="vehicle.dodge.charger_police_2020" speedFactor="1.00" vaporized="traci"/>
    <tripinfo id="randomCar_1717297832225957188" depart="138.00" departLane="-1626_1" departPos="5.34" departSpeed="0.00" departDelay="0.00" arrival="164.00" arrivalLane="-1666_1" arrivalPos="2.91" arrivalSpeed="1.78" duration="26.00" routeLength="241.23" waitingTime="0.00" waitingCount="0" stopTime="0.00" timeLoss="5.68" rerouteNo="0" devices="tripinfo_randomCar_1717297832225957188" vType="vehicle.dodge.charger_police_2020" speedFactor="0.90" vaporized="traci"/>
    <tripinfo id="randomCar_1717297832228080167" depart="138.00" departLane="-1628_1" departPos="5.34" departSpeed="0.00" departDelay="0.00" arrival="164.00" arrivalLane="-1581_1" arrivalPos="34.78" arrivalSpeed="12.66" duration="26.00" routeLength="284.63" waitingTime="0.00" waitingCount="0" stopTime="0.00" timeLoss="6.51" rerouteNo="0" devices="tripinfo_randomCar_1717297832228080167" vType="vehicle.dodge.charger_police_2020" speedFactor="1.14" vaporized="traci"/>
    <tripinfo id="randomCar_1717297832229154715" depart="138.00" departLane="-1476_1" departPos="5.34" departSpeed="0.00" departDelay="0.00" arrival="164.00" arrivalLane="-1421_1" arrivalPos="16.27" arrivalSpeed="12.08" duration="26.00" routeLength="274.25" waitingTime="0.00" waitingCount="0" stopTime="0.00" timeLoss="5.46" rerouteNo="0" devices="tripinfo_randomCar_1717297832229154715" vType="vehicle.dodge.charger_police_2020" speedFactor="1.02" vaporized="traci"/>
    <tripinfo id="randomCar_1717297832230239475" depart="138.00" departLane="-1554_1" departPos="5.34" departSpeed="0.00" departDelay="0.00" arrival="164.00" arrivalLane="-1651_1" arrivalPos="96.43" arrivalSpeed="13.29" duration="26.00" routeLength="253.34" waitingTime="0.00" waitingCount="0" stopTime="0.00" timeLoss="5.76" rerouteNo="0" devices="tripinfo_randomCar_1717297832230239475" vType="vehicle.dodge.charger_police_2020" speedFactor="0.97" vaporized="traci"/>
    <tripinfo id="randomCar_1717297832231314030" depart="138.00" departLane="-1574_1" departPos="5.34" departSpeed="0.00" departDelay="0.00" arrival="164.00" arrivalLane="-1661_1" arrivalPos="45.25" arrivalSpeed="14.77" duration="26.00" routeLength="307.75" waitingTime="0.00" waitingCount="0" stopTime="0.00" timeLoss="4.53" rerouteNo="0" devices="tripinfo_randomCar_1717297832231314030" vType="vehicle.dodge.charger_police_2020" speedFactor="1.08" vaporized="traci"/>
    <tripinfo id="randomCar_1717297832233370403" depart="141.00" departLane="-1574_1" departPos="5.34" departSpeed="0.00" departDelay="3.00" arrival="164.00" arrivalLane=":67_11_0" arrivalPos="5.49" arrivalSpeed="8.78" duration="23.00" routeLength="256.86" waitingTime="0.00" waitingCount="0" stopTime="0.00" timeLoss="4.80" rerouteNo="0" devices="tripinfo_randomCar_1717297832233370403" vType="vehicle.dodge.charger_police_2020" speedFactor="1.12" vaporized="traci"/>
    <tripinfo id="randomCar_1717297832233971406" depart="138.00" departLane="-1577_1" departPos="5.34" departSpeed="0.00" departDelay="0.00" arrival="164.00" arrivalLane="-1533_1" arrivalPos="11.04" arrivalSpeed="13.42" duration="26.00" routeLength="261.97" waitingTime="0.00" waitingCount="0" stopTime="0.00" timeLoss="5.57" rerouteNo="0" devices="tripinfo_randomCar_1717297832233971406" vType="vehicle.dodge.charger_police_2020" speedFactor="1.02" vaporized="traci"/>
    <tripinfo id="randomCar_1717297832234588167" depart="138.00" departLane="-1535_1" departPos="5.28" departSpeed="0.00" departDelay="0.00" arrival="164.00" arrivalLane=":72_5_0" arrivalPos="4.01" arrivalSpeed="21.45" duration="26.00" routeLength="397.33" waitingTime="0.00" waitingCount="0" stopTime="0.00" timeLoss="6.77" rerouteNo="0" devices="tripinfo_randomCar_1717297832234588167" vType="vehicle.dodge.charger_police_2020" speedFactor="0.99" vaporized="traci"/>
    <tripinfo id="randomCar_1717297832235441983" depart="138.00" departLane="-1428_1" departPos="5.34" departSpeed="0.00" departDelay="0.00" arrival="164.00" arrivalLane="-1591_1" arrivalPos="41.96" arrivalSpeed="9.10" duration="26.00" routeLength="175.14" waitingTime="0.00" waitingCount="0" stopTime="0.00" timeLoss="9.52" rerouteNo="0" devices="tripinfo_randomCar_1717297832235441983" vType="vehicle.dodge.charger_police_2020" speedFactor="0.94" vaporized="traci"/>
    <tripinfo id="randomCar_1717297832235744498" depart="138.00" departLane="-1567_1" departPos="5.34" departSpeed="0.00" departDelay="0.00" arrival="164.00" arrivalLane=":20_4_1" arrivalPos="3.16" arrivalSpeed="5.13" duration="26.00" routeLength="149.98" waitingTime="4.00" waitingCount="1" stopTime="0.00" timeLoss="11.51" rerouteNo="0" devices="tripinfo_randomCar_1717297832235744498" vType="vehicle.dodge.charger_police_2020" speedFactor="0.88" vaporized="traci"/>
    <tripinfo id="randomCar_1717297832236415694" depart="138.00" departLane="-1472_1" departPos="5.34" departSpeed="0.00" departDelay="0.00" arrival="164.00" arrivalLane="-1467_1" arrivalPos="89.52" arrivalSpeed="12.57" duration="26.00" routeLength="243.96" waitingTime="0.00" waitingCount="0" stopTime="0.00" timeLoss="7.57" rerouteNo="0" devices="tripinfo_randomCar_1717297832236415694" vType="vehicle.dodge.charger_police_2020" speedFactor="0.91" vaporized="traci"/>
    <tripinfo id="randomCar_1717297832236719220" depart="138.00" departLane="-1524_1" departPos="5.34" departSpeed="0.00" departDelay="0.00" arrival="164.00" arrivalLane=":79_0_1" arrivalPos="6.61" arrivalSpeed="0.00" duration="26.00" routeLength="7.20" waitingTime="21.00" waitingCount="2" stopTime="0.00" timeLoss="23.86" rerouteNo="0" devices="tripinfo_randomCar_1717297832236719220" vType="vehicle.dodge.charger_police_2020" speedFactor="1.04" vaporized="traci"/>
    <tripinfo id="randomCar_1717297832237296455" depart="138.00" departLane="-1560_1" departPos="5.34" departSpeed="0.00" departDelay="0.00" arrival="164.00" arrivalLane="-1560_1" arrivalPos="210.16" arrivalSpeed="0.00" duration="26.00" routeLength="204.82" waitingTime="5.00" waitingCount="1" stopTime="0.00" timeLoss="10.57" rerouteNo="0" devices="tripinfo_randomCar_1717297832237296455" vType="vehicle.dodge.charger_police_2020" speedFactor="1.02" vaporized="traci"/>
    <tripinfo id="randomCar_1717297832237693842" depart="138.00" departLane="-1512_1" departPos="0.20" departSpeed="0.00" departDelay="0.00" arrival="164.00" arrivalLane="-1593_1" arrivalPos="146.07" arrivalSpeed="12.92" duration="26.00" routeLength="231.43" waitingTime="0.00" waitingCount="0" stopTime="0.00" timeLoss="5.50" rerouteNo="0" devices="tripinfo_randomCar_1717297832237693842" vType="vehicle.dodge.charger_police_2020" speedFactor="1.02" vaporized="traci"/>
    <tripinfo id="randomCar_1717297832238041216" depart="138.00" departLane="-1614_1" departPos="5.34" departSpeed="0.00" departDelay="0.00" arrival="164.00" arrivalLane=":101_1_0" arrivalPos="21.50" arrivalSpeed="8.52" duration="26.00" routeLength="179.63" waitingTime="0.00" waitingCount="0" stopTime="0.00" timeLoss="4.99" rerouteNo="0" devices="tripinfo_randomCar_1717297832238041216" vType="vehicle.dodge.charger_police_2020" speedFactor="0.97" vaporized="traci"/>
    <tripinfo id="randomCar_1717297832238661494" depart="138.00" departLane="-1434_1" departPos="0.20" departSpeed="0.00" departDelay="0.00" arrival="164.00" arrivalLane=":6_9_1" arrivalPos="21.46" arrivalSpeed="0.00" duration="26.00" routeLength="21.46" waitingTime="18.00" waitingCount="1" stopTime="0.00" timeLoss="21.92" rerouteNo="0" devices="tripinfo_randomCar_1717297832238661494" vType="vehicle.dodge.charger_police_2020" speedFactor="0.94" vaporized="traci"/>
    <tripinfo id="randomCar_1717297832238973842" depart="138.00" departLane="-1541_1" departPos="0.20" departSpeed="0.00" departDelay="0.00" arrival="164.00" arrivalLane=":18_3_1" arrivalPos="11.41" arrivalSpeed="4.52" duration="26.00" routeLength="11.41" waitingTime="19.00" waitingCount="2" stopTime="0.00" timeLoss="23.59" rerouteNo="0" devices="tripinfo_randomCar_1717297832238973842" vType="vehicle.dodge.charger_police_2020" speedFactor="1.06" vaporized="traci"/>
    <tripinfo id="randomCar_1717297832239840849" depart="138.00" departLane="-1408_1" departPos="0.20" departSpeed="0.00" departDelay="0.00" arrival="164.00" arrivalLane=":19_2_0" arrivalPos="0.79" arrivalSpeed="0.00" duration="26.00" routeLength="0.79" waitingTime="24.00" waitingCount="2" stopTime="0.00" timeLoss="24.90" rerouteNo="0" devices="tripinfo_randomCar_1717297832239840849" vType="vehicle.dodge.charger_police_2020" speedFactor="0.98" vaporized="traci"/>
    <tripinfo id="randomCar_1717297832240545286" depart="138.00" departLane="-1546_1" departPos="5.34" departSpeed="0.00" departDelay="0.00" arrival="164.00" arrivalLane="-1663_1" arrivalPos="41.22" arrivalSpeed="13.52" duration="26.00" routeLength="234.96" waitingTime="0.00" waitingCount="0" stopTime="0.00" timeLoss="7.32" rerouteNo="0" devices="tripinfo_randomCar_1717297832240545286" vType="vehicle.dodge.charger_police_2020" speedFactor="1.03" vaporized="traci"/>
    <tripinfo id="randomCar_1717297832240837098" depart="138.00" departLane="-1410_1" departPos="5.34" departSpeed="0.00" departDelay="0.00" arrival="164.00" arrivalLane="-1567_1" arrivalPos="7.56" arrivalSpeed="7.20" duration="26.00" routeLength="187.48" waitingTime="0.00" waitingCount="0" stopTime="0.00" timeLoss="10.31" rerouteNo="0" devices="tripinfo_randomCar_1717297832240837098" vType="vehicle.dodge.charger_police_2020" speedFactor="0.98" vaporized="traci"/>
    <tripinfo id="randomCar_1717297832241233969" depart="138.00" departLane="-1517_1" departPos="5.34" departSpeed="0.00" departDelay="0.00" arrival="164.00" arrivalLane=":115_0_1" arrivalPos="1.89" arrivalSpeed="2.00" duration="26.00" routeLength="174.19" waitingTime="2.00" waitingCount="1" stopTime="0.00" timeLoss="10.70" rerouteNo="0" devices="tripinfo_randomCar_1717297832241233969" vType="vehicle.dodge.charger_police_2020" speedFactor="1.01" vaporized="traci"/>
    <tripinfo id="randomCar_1717297832241538949" depart="138.00" departLane="-1652_1" departPos="0.20" departSpeed="0.00" departDelay="0.00" arrival="164.00" arrivalLane=":68_0_2" arrivalPos="15.19" arrivalSpeed="14.73" duration="26.00" routeLength="306.76" waitingTime="0.00" waitingCount="0" stopTime="0.00" timeLoss="4.37" rerouteNo="0" devices="tripinfo_randomCar_1717297832241538949" vType="vehicle.dodge.charger_police_2020" speedFactor="1.09" vaporized="traci"/>
    <tripinfo id="randomCar_1717297832242179353" depart="141.00" departLane="-1428_1" departPos="5.34" departSpeed="0.00" departDelay="3.00" arrival="164.00" arrivalLane="-1591_1" arrivalPos="14.81" arrivalSpeed="8.24" duration="23.00" routeLength="147.99" waitingTime="0.00" waitingCount="0" stopTime="0.00" timeLoss="10.11" rerouteNo="0" devices="tripinfo_randomCar_1717297832242179353" vType="vehicle.dodge.charger_police_2020" speedFactor="1.03" vaporized="traci"/>
    <tripinfo id="randomCar_1717297832242577609" depart="138.00" departLane="-1532_1" departPos="5.34" departSpeed="0.00" departDelay="0.00" arrival="164.00" arrivalLane=":16_14_0" arrivalPos="5.11" arrivalSpeed="6.52" duration="26.00" routeLength="229.25" waitingTime="0.00" waitingCount="0" stopTime="0.00" timeLoss="7.91" rerouteNo="0" devices="tripinfo_randomCar_1717297832242577609" vType="vehicle.dodge.charger_police_2020" speedFactor="1.00" vaporized="traci"/>
    <tripinfo id="randomCar_1717297832242922664" depart="138.00" departLane="-1510_1" departPos="0.94" departSpeed="0.00" departDelay="0.00" arrival="164.00" arrivalLane=":125_3_0" arrivalPos="10.50" arrivalSpeed="0.08" duration="26.00" routeLength="123.37" waitingTime="1.00" waitingCount="1" stopTime="0.00" timeLoss="11.76" rerouteNo="0" devices="tripinfo_randomCar_1717297832242922664" vType="vehicle.dodge.charger_police_2020" speedFactor="1.02" vaporized="traci"/>
    <tripinfo id="randomCar_1717297832243225674" depart="138.00" departLane="-1602_1" departPos="5.34" departSpeed="0.00" departDelay="0.00" arrival="164.00" arrivalLane="-1602_1" arrivalPos="151.13" arrivalSpeed="0.00" duration="26.00" routeLength="145.79" waitingTime="8.00" waitingCount="1" stopTime="0.00" timeLoss="14.15" rerouteNo="0" devices="tripinfo_randomCar_1717297832243225674" vType="vehicle.dodge.charger_police_2020" speedFactor="0.97" vaporized="traci"/>
    <tripinfo id="randomCar_1717297832243484450" depart="138.00" departLane="1427.662_1" departPos="5.34" departSpeed="0.00" departDelay="0.00" arrival="164.00" arrivalLane="1427_1" arrivalPos="276.15" arrivalSpeed="13.50" duration="26.00" routeLength="305.00" waitingTime="0.00" waitingCount="0" stopTime="0.00" timeLoss="5.87" rerouteNo="0" devices="tripinfo_randomCar_1717297832243484450" vType="vehicle.dodge.charger_police_2020" speedFactor="1.15" vaporized="traci"/>
    <tripinfo id="randomCar_1717297832243832400" depart="138.00" departLane="-1615_1" departPos="5.34" departSpeed="0.00" departDelay="0.00" arrival="164.00" arrivalLane="-1569_1" arrivalPos="50.48" arrivalSpeed="13.47" duration="26.00" routeLength="185.93" waitingTime="0.00" waitingCount="0" stopTime="0.00" timeLoss="8.50" rerouteNo="0" devices="tripinfo_randomCar_1717297832243832400" vType="vehicle.dodge.charger_police_2020" speedFactor="0.98" vaporized="traci"/>
    <tripinfo id="randomCar_1717297832244091040" depart="138.00" departLane="-1538_1" departPos="5.34" departSpeed="0.00" departDelay="0.00" arrival="164.00" arrivalLane="-1552_2" arrivalPos="14.11" arrivalSpeed="0.00" duration="26.00" routeLength="110.75" waitingTime="6.00" waitingCount="1" stopTime="0.00" timeLoss="16.67" rerouteNo="0" devices="tripinfo_randomCar_1717297832244091040" vType="vehicle.dodge.charger_police_2020" speedFactor="1.00" vaporized="traci"/>
    <tripinfo id="randomCar_1717297832244435064" depart="141.00" departLane="1427.662_1" departPos="5.34" departSpeed="0.00" departDelay="3.00" arrival="164.00" arrivalLane="1427_1" arrivalPos="226.23" arrivalSpeed="14.02" duration="23.00" routeLength="255.08" waitingTime="0.00" waitingCount="0" stopTime="0.00" timeLoss="4.39" rerouteNo="0" devices="tripinfo_randomCar_1717297832244435064" vType="vehicle.dodge.charger_police_2020" speedFactor="1.04" vaporized="traci"/>
    <tripinfo id="randomCar_1717297832245079824" depart="151.00" departLane="-1619_1" departPos="5.34" departSpeed="0.00" departDelay="13.00" arrival="164.00" arrivalLane="-1619_1" arrivalPos="21.51" arrivalSpeed="0.00" duration="13.00" routeLength="16.17" waitingTime="6.00" waitingCount="1" stopTime="0.00" timeLoss="11.28" rerouteNo="0" devices="tripinfo_randomCar_1717297832245079824" vType="vehicle.dodge.charger_police_2020" speedFactor="1.01" vaporized="traci"/>
    <tripinfo id="randomCar_1717297832245366616" depart="138.00" departLane="-1618_1" departPos="5.34" departSpeed="0.00" departDelay="0.00" arrival="164.00" arrivalLane="-1599_1" arrivalPos="61.99" arrivalSpeed="5.63" duration="26.00" routeLength="241.02" waitingTime="0.00" waitingCount="0" stopTime="0.00" timeLoss="7.04" rerouteNo="0" devices="tripinfo_randomCar_1717297832245366616" vType="vehicle.dodge.charger_police_2020" speedFactor="1.02" vaporized="traci"/>
    <tripinfo id="randomCar_1717297832245952043" depart="138.00" departLane="-1419_1" departPos="5.34" departSpeed="0.00" departDelay="0.00" arrival="164.00" arrivalLane="-1417_1" arrivalPos="165.59" arrivalSpeed="10.01" duration="26.00" routeLength="258.68" waitingTime="0.00" waitingCount="0" stopTime="0.00" timeLoss="5.73" rerouteNo="0" devices="tripinfo_randomCar_1717297832245952043" vType="vehicle.dodge.charger_police_2020" speedFactor="1.02" vaporized="traci"/>
    <tripinfo id="randomCar_1717297832246360724" depart="138.00" departLane="-1508_1" departPos="5.34" departSpeed="0.00" departDelay="0.00" arrival="164.00" arrivalLane="-1509_1" arrivalPos="245.53" arrivalSpeed="11.48" duration="26.00" routeLength="264.72" waitingTime="0.00" waitingCount="0" stopTime="0.00" timeLoss="3.63" rerouteNo="0" devices="tripinfo_randomCar_1717297832246360724" vType="vehicle.dodge.charger_police_2020" speedFactor="0.89" vaporized="traci"/>
    <tripinfo id="randomCar_1717297832246650707" depart="138.00" departLane="-1511_1" departPos="0.20" departSpeed="0.00" departDelay="0.00" arrival="164.00" arrivalLane="-1584_1" arrivalPos="5.67" arrivalSpeed="0.00" duration="26.00" routeLength="119.66" waitingTime="2.00" waitingCount="1" stopTime="0.00" timeLoss="9.57" rerouteNo="0" devices="tripinfo_randomCar_1717297832246650707" vType="vehicle.dodge.charger_police_2020" speedFactor="0.83" vaporized="traci"/>
    <tripinfo id="randomCar_1717297832246914078" depart="138.00" departLane="-1555_1" departPos="5.34" departSpeed="0.00" departDelay="0.00" arrival="164.00" arrivalLane="-1613_2" arrivalPos="140.12" arrivalSpeed="12.31" duration="26.00" routeLength="234.28" waitingTime="0.00" waitingCount="0" stopTime="0.00" timeLoss="5.84" rerouteNo="0" devices="tripinfo_randomCar_1717297832246914078" vType="vehicle.dodge.charger_police_2020" speedFactor="0.92" vaporized="traci"/>
    <tripinfo id="randomCar_1717297832247257238" depart="138.00" departLane="-1409_1" departPos="5.34" departSpeed="0.00" departDelay="0.00" arrival="164.00" arrivalLane=":23_6_0" arrivalPos="10.26" arrivalSpeed="7.33" duration="26.00" routeLength="229.22" waitingTime="0.00" waitingCount="0" stopTime="0.00" timeLoss="8.17" rerouteNo="0" devices="tripinfo_randomCar_1717297832247257238" vType="vehicle.dodge.charger_police_2020" speedFactor="1.09" vaporized="traci"/>
    <tripinfo id="randomCar_1717297832247654943" depart="138.00" departLane="-1545_1" departPos="5.34" departSpeed="0.00" departDelay="0.00" arrival="164.00" arrivalLane="-1550_1" arrivalPos="8.07" arrivalSpeed="7.13" duration="26.00" routeLength="256.26" waitingTime="0.00" waitingCount="0" stopTime="0.00" timeLoss="7.10" rerouteNo="0" devices="tripinfo_randomCar_1717297832247654943" vType="vehicle.dodge.charger_police_2020" speedFactor="1.06" vaporized="traci"/>
    <tripinfo id="randomCar_1717297832247982538" depart="141.00" departLane="-1517_1" departPos="5.34" departSpeed="0.00" departDelay="3.00" arrival="164.00" arrivalLane=":6_7_0" arrivalPos="37.12" arrivalSpeed="10.97" duration="23.00" routeLength="114.63" waitingTime="3.00" waitingCount="1" stopTime="0.00" timeLoss="12.98" rerouteNo="0" devices="tripinfo_randomCar_1717297832247982538" vType="vehicle.dodge.charger_police_2020" speedFactor="1.01" vaporized="traci"/>
    <tripinfo id="randomCar_1717297832248922266" depart="138.00" departLane="-1525_1" departPos="5.34" departSpeed="0.00" departDelay="0.00" arrival="164.00" arrivalLane="-1617_1" arrivalPos="32.75" arrivalSpeed="12.05" duration="26.00" routeLength="183.15" waitingTime="0.00" waitingCount="0" stopTime="0.00" timeLoss="4.85" rerouteNo="0" devices="tripinfo_randomCar_1717297832248922266" vType="vehicle.dodge.charger_police_2020" speedFactor="0.91" vaporized="traci"/>
    <tripinfo id="randomCar_1717297832249231689" depart="138.00" departLane="-1650_1" departPos="5.34" departSpeed="0.00" departDelay="0.00" arrival="164.00" arrivalLane="-1522_1" arrivalPos="7.16" arrivalSpeed="8.58" duration="26.00" routeLength="277.22" waitingTime="0.00" waitingCount="0" stopTime="0.00" timeLoss="6.43" rerouteNo="0" devices="tripinfo_randomCar_1717297832249231689" vType="vehicle.dodge.charger_police_2020" speedFactor="1.12" vaporized="traci"/>
    <tripinfo id="randomCar_1717297832249567107" depart="142.00" departLane="-1535_1" departPos="5.28" departSpeed="0.00" departDelay="4.00" arrival="164.00" arrivalLane="-1473_1" arrivalPos="226.58" arrivalSpeed="22.85" duration="22.00" routeLength="362.40" waitingTime="0.00" waitingCount="0" stopTime="0.00" timeLoss="6.07" rerouteNo="0" devices="tripinfo_randomCar_1717297832249567107" vType="vehicle.dodge.charger_police_2020" speedFactor="1.10" vaporized="traci"/>
    <tripinfo id="randomCar_1717297832249838175" depart="138.00" departLane="-1623.244_1" departPos="5.34" departSpeed="0.00" departDelay="0.00" arrival="164.00" arrivalLane="-1635_2" arrivalPos="28.60" arrivalSpeed="13.82" duration="26.00" routeLength="227.18" waitingTime="1.00" waitingCount="1" stopTime="0.00" timeLoss="9.54" rerouteNo="0" devices="tripinfo_randomCar_1717297832249838175" vType="vehicle.dodge.charger_police_2020" speedFactor="1.06" vaporized="traci"/>
    <tripinfo id="randomCar_1717297832250114146" depart="138.00" departLane="-1563_1" departPos="5.34" departSpeed="0.00" departDelay="0.00" arrival="164.00" arrivalLane="-1666_1" arrivalPos="15.45" arrivalSpeed="3.91" duration="26.00" routeLength="44.32" waitingTime="9.00" waitingCount="1" stopTime="0.00" timeLoss="20.20" rerouteNo="0" devices="tripinfo_randomCar_1717297832250114146" vType="vehicle.dodge.charger_police_2020" speedFactor="0.96" vaporized="traci"/>
    <tripinfo id="randomCar_1717297832250477530" depart="141.00" departLane="-1525_1" departPos="5.34" departSpeed="0.00" departDelay="3.00" arrival="164.00" arrivalLane="-1617_1" arrivalPos="7.37" arrivalSpeed="8.05" duration="23.00" routeLength="157.77" waitingTime="0.00" waitingCount="0" stopTime="0.00" timeLoss="4.79" rerouteNo="0" devices="tripinfo_randomCar_1717297832250477530" vType="vehicle.dodge.charger_police_2020" speedFactor="0.97" vaporized="traci"/>
    <tripinfo id="randomCar_1717297832250749744" depart="138.00" departLane="-1447_1" departPos="5.34" departSpeed="0.00" departDelay="0.00" arrival="164.00" arrivalLane="-1619_1" arrivalPos="36.98" arrivalSpeed="0.00" duration="26.00" routeLength="111.15" waitingTime="10.00" waitingCount="1" stopTime="0.00" timeLoss="19.75" rerouteNo="0" devices="tripinfo_randomCar_1717297832250749744" vType="vehicle.dodge.charger_police_2020" speedFactor="0.95" vaporized="traci"/>
    <tripinfo id="randomCar_1717297832251655886" depart="138.00" departLane="-1521_1" departPos="0.20" departSpeed="0.00" departDelay="0.00" arrival="164.00" arrivalLane="-1504_1" arrivalPos="28.46" arrivalSpeed="8.65" duration="26.00" routeLength="38.28" waitingTime="18.00" waitingCount="1" stopTime="0.00" timeLoss="21.67" rerouteNo="0" devices="tripinfo_randomCar_1717297832251655886" vType="vehicle.dodge.charger_police_2020" speedFactor="0.89" vaporized="traci"/>
    <tripinfo id="randomCar_1717297832252530121" depart="138.00" departLane="-1637_2" departPos="5.34" departSpeed="0.00" departDelay="0.00" arrival="164.00" arrivalLane="-1613_2" arrivalPos="55.78" arrivalSpeed="14.63" duration="26.00" routeLength="275.57" waitingTime="0.00" waitingCount="0" stopTime="0.00" timeLoss="5.53" rerouteNo="0" devices="tripinfo_randomCar_1717297832252530121" vType="vehicle.dodge.charger_police_2020" speedFactor="1.07" vaporized="traci"/>
    <tripinfo id="randomCar_1717297832253007084" depart="138.00" departLane="1427_1" departPos="5.34" departSpeed="0.00" departDelay="0.00" arrival="164.00" arrivalLane="1427_1" arrivalPos="299.55" arrivalSpeed="13.71" duration="26.00" routeLength="294.21" waitingTime="0.00" waitingCount="0" stopTime="0.00" timeLoss="4.11" rerouteNo="0" devices="tripinfo_randomCar_1717297832253007084" vType="vehicle.dodge.charger_police_2020" speedFactor="1.01" vaporized="traci"/>
    <tripinfo id="randomCar_1717297832253452326" depart="138.00" departLane="-1666_1" departPos="5.34" departSpeed="0.00" departDelay="0.00" arrival="164.00" arrivalLane=":79_2_1" arrivalPos="8.45" arrivalSpeed="0.34" duration="26.00" routeLength="28.71" waitingTime="13.00" waitingCount="1" stopTime="0.00" timeLoss="22.71" rerouteNo="0" devices="tripinfo_randomCar_1717297832253452326" vType="vehicle.dodge.charger_police_2020" speedFactor="1.03" vaporized="traci"/>