<?xml version="1.0" encoding="UTF-8"?>

<!-- generated on 2024-05-19 02:54:00 by Eclipse SUMO GUI Version 1.12.0
<configuration xmlns:xsi="http://www.w3.org/2001/XMLSchema-instance" xsi:noNamespaceSchemaLocation="http://sumo.dlr.de/xsd/sumoConfiguration.xsd">

    <input>
        <net-file value="Adapters/co_simulation/sumo_configuration/simple-map/UA.net.xml"/>
        <route-files value="Adapters/co_simulation/sumo_configuration/simple-map/carlavtypes.rou.xml,Adapters/co_simulation/sumo_configuration/simple-map/resimulation.rou.xml"/>
    </input>

    <output>
        <tripinfo-output value="tripinfo.xml"/>
    </output>

    <traci_server>
        <remote-port value="37893"/>
        <num-clients value="1"/>
    </traci_server>

    <gui_only>
        <gui-settings-file value="Adapters/co_simulation/sumo_configuration/simple-map/simple-map.view.xml"/>
        <quit-on-end value="true"/>
    </gui_only>

</configuration>
-->

<tripinfos xmlns:xsi="http://www.w3.org/2001/XMLSchema-instance" xsi:noNamespaceSchemaLocation="http://sumo.dlr.de/xsd/tripinfo_file.xsd">
    <tripinfo id="0" depart="3.00" departLane="-1466_1" departPos="5.34" departSpeed="0.00" departDelay="0.00" arrival="12.00" arrivalLane="-1465_1" arrivalPos="11.38" arrivalSpeed="13.75" duration="9.00" routeLength="73.18" waitingTime="0.00" waitingCount="0" stopTime="0.00" timeLoss="3.49" rerouteNo="0" devices="tripinfo_0" vType="vehicle.dodge.charger_police_2020" speedFactor="1.06" vaporized=""/>
    <tripinfo id="randomCar_1716082811536458421" depart="24.00" departLane="-1601_1" departPos="5.34" departSpeed="0.00" departDelay="0.00" arrival="25.00" arrivalLane="-1601_1" arrivalPos="6.57" arrivalSpeed="2.47" duration="1.00" routeLength="1.23" waitingTime="0.00" waitingCount="0" stopTime="0.00" timeLoss="0.80" rerouteNo="0" devices="tripinfo_randomCar_1716082811536458421" vType="vehicle.dodge.charger_police_2020" speedFactor="0.89" vaporized=""/>
    <tripinfo id="randomCar_1716082811549097756" depart="22.00" departLane="-1627_1" departPos="5.34" departSpeed="0.00" departDelay="0.00" arrival="38.00" arrivalLane="-1628_1" arrivalPos="30.67" arrivalSpeed="12.46" duration="16.00" routeLength="73.43" waitingTime="0.00" waitingCount="0" stopTime="0.00" timeLoss="10.32" rerouteNo="0" devices="tripinfo_randomCar_1716082811549097756" vType="vehicle.dodge.charger_police_2020" speedFactor="1.18" vaporized=""/>
    <tripinfo id="randomCar_1716082810240674279" depart="20.00" departLane="-1512_1" departPos="0.20" departSpeed="0.00" departDelay="0.00" arrival="40.00" arrivalLane="-1569_1" arrivalPos="153.10" arrivalSpeed="10.29" duration="20.00" routeLength="213.90" waitingTime="0.00" waitingCount="0" stopTime="0.00" timeLoss="3.84" rerouteNo="0" devices="tripinfo_randomCar_1716082810240674279" vType="vehicle.dodge.charger_police_2020" speedFactor="1.01" vaporized=""/>
    <tripinfo id="randomCar_1716082809615420569" depart="19.00" departLane="-1502_0" departPos="0.20" departSpeed="0.00" departDelay="0.00" arrival="42.00" arrivalLane="-1414_1" arrivalPos="19.96" arrivalSpeed="11.09" duration="23.00" routeLength="164.32" waitingTime="1.00" waitingCount="1" stopTime="0.00" timeLoss="7.50" rerouteNo="0" devices="tripinfo_randomCar_1716082809615420569" vType="vehicle.dodge.charger_police_2020" speedFactor="0.94" vaporized=""/>
    <tripinfo id="randomCar_1716082811540089131" depart="31.00" departLane="-1447_1" departPos="5.34" departSpeed="0.00" departDelay="0.00" arrival="46.00" arrivalLane="-1619_1" arrivalPos="60.31" arrivalSpeed="11.32" duration="15.00" routeLength="134.45" waitingTime="0.00" waitingCount="0" stopTime="0.00" timeLoss="8.89" rerouteNo="0" devices="tripinfo_randomCar_1716082811540089131" vType="vehicle.dodge.charger_police_2020" speedFactor="1.00" vaporized=""/>
    <tripinfo id="randomCar_1716082811502113728" depart="24.00" departLane="-1634_1" departPos="5.34" departSpeed="0.00" departDelay="0.00" arrival="47.00" arrivalLane="-1575_1" arrivalPos="61.30" arrivalSpeed="15.05" duration="23.00" routeLength="178.33" waitingTime="0.00" waitingCount="0" stopTime="0.00" timeLoss="9.65" rerouteNo="0" devices="tripinfo_randomCar_1716082811502113728" vType="vehicle.dodge.charger_police_2020" speedFactor="1.13" vaporized=""/>
    <tripinfo id="randomCar_1716082809610120354" depart="19.00" departLane="-1576_1" departPos="5.34" departSpeed="0.00" departDelay="0.00" arrival="50.00" arrivalLane="-1466_1" arrivalPos="53.23" arrivalSpeed="12.14" duration="31.00" routeLength="200.28" waitingTime="0.00" waitingCount="0" stopTime="0.00" timeLoss="12.28" rerouteNo="0" devices="tripinfo_randomCar_1716082809610120354" vType="vehicle.dodge.charger_police_2020" speedFactor="0.88" vaporized=""/>
    <tripinfo id="randomCar_1716082809623329791" depart="19.00" departLane="-1513_1" departPos="5.34" departSpeed="0.00" departDelay="0.00" arrival="50.00" arrivalLane="-1584_2" arrivalPos="5.82" arrivalSpeed="10.09" duration="31.00" routeLength="169.40" waitingTime="1.00" waitingCount="1" stopTime="0.00" timeLoss="15.67" rerouteNo="0" devices="tripinfo_randomCar_1716082809623329791" vType="vehicle.dodge.charger_police_2020" speedFactor="1.01" vaporized=""/>
    <tripinfo id="randomCar_1716082810871360403" depart="28.00" departLane="-1501_0" departPos="0.20" departSpeed="0.00" departDelay="1.00" arrival="53.00" arrivalLane="-1551_1" arrivalPos="87.30" arrivalSpeed="17.13" duration="25.00" routeLength="233.90" waitingTime="0.00" waitingCount="0" stopTime="0.00" timeLoss="13.96" rerouteNo="0" devices="tripinfo_randomCar_1716082810871360403" vType="vehicle.dodge.charger_police_2020" speedFactor="1.14" vaporized=""/>
    <tripinfo id="randomCar_1716082810880765429" depart="21.00" departLane="-1586_1" departPos="5.34" departSpeed="0.00" departDelay="0.00" arrival="55.00" arrivalLane="-1432_1" arrivalPos="132.51" arrivalSpeed="8.70" duration="34.00" routeLength="264.75" waitingTime="0.00" waitingCount="0" stopTime="0.00" timeLoss="5.89" rerouteNo="0" devices="tripinfo_randomCar_1716082810880765429" vType="vehicle.dodge.charger_police_2020" speedFactor="0.88" vaporized=""/>
    <tripinfo id="randomCar_1716082811515786365" depart="22.00" departLane="-1567_1" departPos="5.34" departSpeed="0.00" departDelay="0.00" arrival="55.00" arrivalLane="-1665_2" arrivalPos="15.61" arrivalSpeed="11.02" duration="33.00" routeLength="206.06" waitingTime="2.00" waitingCount="1" stopTime="0.00" timeLoss="14.73" rerouteNo="0" devices="tripinfo_randomCar_1716082811515786365" vType="vehicle.dodge.charger_police_2020" speedFactor="0.95" vaporized=""/>
    <tripinfo id="randomCar_1716082810275912475" depart="20.00" departLane="-1566_1" departPos="5.34" departSpeed="0.00" departDelay="0.00" arrival="58.00" arrivalLane="-1487_0" arrivalPos="0.20" arrivalSpeed="5.54" duration="38.00" routeLength="333.12" waitingTime="0.00" waitingCount="0" stopTime="0.00" timeLoss="9.85" rerouteNo="0" devices="tripinfo_randomCar_1716082810275912475" vType="vehicle.dodge.charger_police_2020" speedFactor="0.90" vaporized=""/>
    <tripinfo id="randomCar_1716082810277714680" depart="20.00" departLane="-1625_1" departPos="5.34" departSpeed="0.00" departDelay="0.00" arrival="60.00" arrivalLane="-1548_1" arrivalPos="69.24" arrivalSpeed="13.47" duration="40.00" routeLength="365.12" waitingTime="0.00" waitingCount="0" stopTime="0.00" timeLoss="12.68" rerouteNo="0" devices="tripinfo_randomCar_1716082810277714680" vType="vehicle.dodge.charger_police_2020" speedFactor="1.03" vaporized=""/>
    <tripinfo id="randomCar_1716082811486069084" depart="22.00" departLane="-1624_1" departPos="5.34" departSpeed="0.00" departDelay="0.00" arrival="60.00" arrivalLane="-1657_2" arrivalPos="0.48" arrivalSpeed="10.36" duration="38.00" routeLength="410.52" waitingTime="0.00" waitingCount="0" stopTime="0.00" timeLoss="8.85" rerouteNo="0" devices="tripinfo_randomCar_1716082811486069084" vType="vehicle.dodge.charger_police_2020" speedFactor="1.02" vaporized=""/>
    <tripinfo id="randomCar_1716082810232508256" depart="20.00" departLane="-1599_1" departPos="5.34" departSpeed="0.00" departDelay="0.00" arrival="63.00" arrivalLane="-1556_1" arrivalPos="74.30" arrivalSpeed="12.05" duration="43.00" routeLength="293.08" waitingTime="1.00" waitingCount="1" stopTime="0.00" timeLoss="17.75" rerouteNo="0" devices="tripinfo_randomCar_1716082810232508256" vType="vehicle.dodge.charger_police_2020" speedFactor="0.93" vaporized=""/>
    <tripinfo id="randomCar_1716082810886839045" depart="24.00" departLane="-1445_1" departPos="5.34" departSpeed="0.00" departDelay="0.00" arrival="66.00" arrivalLane="-1600_1" arrivalPos="31.26" arrivalSpeed="11.95" duration="42.00" routeLength="61.91" waitingTime="26.00" waitingCount="1" stopTime="0.00" timeLoss="35.84" rerouteNo="0" devices="tripinfo_randomCar_1716082810886839045" vType="vehicle.dodge.charger_police_2020" speedFactor="1.00" vaporized=""/>
    <tripinfo id="randomCar_1716082811478824464" depart="22.00" departLane="-1394_1" departPos="5.34" departSpeed="0.00" departDelay="0.00" arrival="70.00" arrivalLane="-1605_1" arrivalPos="2.67" arrivalSpeed="8.61" duration="48.00" routeLength="454.05" waitingTime="3.00" waitingCount="1" stopTime="0.00" timeLoss="15.55" rerouteNo="0" devices="tripinfo_randomCar_1716082811478824464" vType="vehicle.dodge.charger_police_2020" speedFactor="1.03" vaporized=""/>
    <tripinfo id="randomCar_1716082811533462613" depart="22.00" departLane="-1664_1" departPos="5.34" departSpeed="0.00" departDelay="0.00" arrival="70.00" arrivalLane="-1544_1" arrivalPos="21.03" arrivalSpeed="9.88" duration="48.00" routeLength="386.12" waitingTime="0.00" waitingCount="0" stopTime="0.00" timeLoss="11.85" rerouteNo="0" devices="tripinfo_randomCar_1716082811533462613" vType="vehicle.dodge.charger_police_2020" speedFactor="0.87" vaporized=""/>
    <tripinfo id="randomCar_1716082811487502788" depart="36.00" departLane="-1499_0" departPos="0.20" departSpeed="0.00" departDelay="1.00" arrival="70.00" arrivalLane="-1425_1" arrivalPos="70.17" arrivalSpeed="13.34" duration="34.00" routeLength="315.30" waitingTime="0.00" waitingCount="0" stopTime="0.00" timeLoss="7.78" rerouteNo="0" devices="tripinfo_randomCar_1716082811487502788" vType="vehicle.dodge.charger_police_2020" speedFactor="0.98" vaporized=""/>
    <tripinfo id="randomCar_1716082810855087558" depart="21.00" departLane="-1509_1" departPos="5.34" departSpeed="0.00" departDelay="0.00" arrival="73.00" arrivalLane="-1513_1" arrivalPos="41.87" arrivalSpeed="10.93" duration="52.00" routeLength="548.38" waitingTime="0.00" waitingCount="0" stopTime="0.00" timeLoss="5.31" rerouteNo="0" devices="tripinfo_randomCar_1716082810855087558" vType="vehicle.dodge.charger_police_2020" speedFactor="0.85" vaporized=""/>
    <tripinfo id="randomCar_1716082810256034521" depart="22.00" departLane="-1583_1" departPos="0.20" departSpeed="0.00" departDelay="0.00" arrival="74.00" arrivalLane="-1485_1" arrivalPos="0.20" arrivalSpeed="13.05" duration="52.00" routeLength="587.89" waitingTime="0.00" waitingCount="0" stopTime="0.00" timeLoss="10.79" rerouteNo="0" devices="tripinfo_randomCar_1716082810256034521" vType="vehicle.dodge.charger_police_2020" speedFactor="1.02" vaporized=""/>
    <tripinfo id="randomCar_1716082811483331676" depart="59.00" departLane="-1408_1" departPos="0.20" departSpeed="0.00" departDelay="13.00" arrival="78.00" arrivalLane="-1604_1" arrivalPos="6.26" arrivalSpeed="12.35" duration="19.00" routeLength="108.07" waitingTime="4.00" waitingCount="1" stopTime="0.00" timeLoss="10.67" rerouteNo="0" devices="tripinfo_randomCar_1716082811483331676" vType="vehicle.dodge.charger_police_2020" speedFactor="1.14" vaporized=""/>
    <tripinfo id="randomCar_1716082811518587773" depart="28.00" departLane="-1447_1" departPos="5.34" departSpeed="0.00" departDelay="0.00" arrival="83.00" arrivalLane="-1627_1" arrivalPos="33.68" arrivalSpeed="13.66" duration="55.00" routeLength="589.69" waitingTime="0.00" waitingCount="0" stopTime="0.00" timeLoss="15.10" rerouteNo="0" devices="tripinfo_randomCar_1716082811518587773" vType="vehicle.dodge.charger_police_2020" speedFactor="0.99" vaporized=""/>
    <tripinfo id="randomCar_1716082811518060471" depart="22.00" departLane="-1462_1" departPos="5.34" departSpeed="0.00" departDelay="0.00" arrival="86.00" arrivalLane="-1655_1" arrivalPos="0.20" arrivalSpeed="12.79" duration="64.00" routeLength="685.17" waitingTime="0.00" waitingCount="0" stopTime="0.00" timeLoss="8.57" rerouteNo="0" devices="tripinfo_randomCar_1716082811518060471" vType="vehicle.dodge.charger_police_2020" speedFactor="0.89" vaporized=""/>
    <tripinfo id="randomCar_1716082810261416735" depart="21.00" departLane="-1588_1" departPos="0.20" departSpeed="0.00" departDelay="0.00" arrival="91.00" arrivalLane="-1564_1" arrivalPos="56.13" arrivalSpeed="14.37" duration="70.00" routeLength="460.59" waitingTime="25.00" waitingCount="3" stopTime="0.00" timeLoss="35.71" rerouteNo="0" devices="tripinfo_randomCar_1716082810261416735" vType="vehicle.dodge.charger_police_2020" speedFactor="1.04" vaporized=""/>
    <tripinfo id="randomCar_1716082810895262368" depart="60.00" departLane="-1500_0" departPos="0.20" departSpeed="0.00" departDelay="4.00" arrival="91.00" arrivalLane="-1558_1" arrivalPos="8.19" arrivalSpeed="8.58" duration="31.00" routeLength="295.78" waitingTime="0.00" waitingCount="0" stopTime="0.00" timeLoss="8.02" rerouteNo="0" devices="tripinfo_randomCar_1716082810895262368" vType="vehicle.dodge.charger_police_2020" speedFactor="1.03" vaporized=""/>
    <tripinfo id="randomCar_1716082810862627279" depart="21.00" departLane="-1541_1" departPos="0.20" departSpeed="0.00" departDelay="0.00" arrival="95.00" arrivalLane="-1643_1" arrivalPos="73.81" arrivalSpeed="11.46" duration="74.00" routeLength="614.95" waitingTime="7.00" waitingCount="2" stopTime="0.00" timeLoss="32.90" rerouteNo="0" devices="tripinfo_randomCar_1716082810862627279" vType="vehicle.dodge.charger_police_2020" speedFactor="0.90" vaporized=""/>
    <tripinfo id="randomCar_1716082811463894523" depart="24.00" departLane="-1434_1" departPos="0.20" departSpeed="0.00" departDelay="0.00" arrival="99.00" arrivalLane="-1586_1" arrivalPos="132.69" arrivalSpeed="10.37" duration="75.00" routeLength="766.01" waitingTime="0.00" waitingCount="0" stopTime="0.00" timeLoss="11.70" rerouteNo="0" devices="tripinfo_randomCar_1716082811463894523" vType="vehicle.dodge.charger_police_2020" speedFactor="0.95" vaporized=""/>
    <tripinfo id="randomCar_1716082811506858340" depart="22.00" departLane="-1600_1" departPos="5.34" departSpeed="0.00" departDelay="0.00" arrival="102.00" arrivalLane="-1606_1" arrivalPos="33.74" arrivalSpeed="13.45" duration="80.00" routeLength="589.10" waitingTime="21.00" waitingCount="1" stopTime="0.00" timeLoss="37.79" rerouteNo="0" devices="tripinfo_randomCar_1716082811506858340" vType="vehicle.dodge.charger_police_2020" speedFactor="1.01" vaporized=""/>
    <tripinfo id="randomCar_1716082812047158118" depart="38.00" departLane="-1483_1" departPos="0.20" departSpeed="0.00" departDelay="0.00" arrival="107.00" arrivalLane="-1455_1" arrivalPos="3.16" arrivalSpeed="8.62" duration="69.00" routeLength="610.33" waitingTime="15.00" waitingCount="2" stopTime="0.00" timeLoss="27.78" rerouteNo="0" devices="tripinfo_randomCar_1716082812047158118" vType="vehicle.dodge.charger_police_2020" speedFactor="1.09" vaporized=""/>
    <tripinfo id="randomCar_1716082811496248911" depart="22.00" departLane="-1658_1" departPos="5.34" departSpeed="0.00" departDelay="0.00" arrival="108.00" arrivalLane="-1464_1" arrivalPos="42.98" arrivalSpeed="13.97" duration="86.00" routeLength="1002.83" waitingTime="0.00" waitingCount="0" stopTime="0.00" timeLoss="13.40" rerouteNo="0" devices="tripinfo_randomCar_1716082811496248911" vType="vehicle.dodge.charger_police_2020" speedFactor="1.02" vaporized=""/>
    <tripinfo id="randomCar_1716082811558481382" depart="23.00" departLane="-1609_1" departPos="5.34" departSpeed="0.00" departDelay="0.00" arrival="108.00" arrivalLane="-1522_1" arrivalPos="192.03" arrivalSpeed="12.89" duration="85.00" routeLength="899.51" waitingTime="0.00" waitingCount="0" stopTime="0.00" timeLoss="16.76" rerouteNo="0" devices="tripinfo_randomCar_1716082811558481382" vType="vehicle.dodge.charger_police_2020" speedFactor="1.01" vaporized=""/>
    <tripinfo id="randomCar_1716082807747972763" depart="16.00" departLane="-1473_1" departPos="5.34" departSpeed="0.00" departDelay="0.00" arrival="110.00" arrivalLane="-1432_1" arrivalPos="132.51" arrivalSpeed="10.36" duration="94.00" routeLength="959.53" waitingTime="0.00" waitingCount="0" stopTime="0.00" timeLoss="20.71" rerouteNo="0" devices="tripinfo_randomCar_1716082807747972763" vType="vehicle.dodge.charger_police_2020" speedFactor="0.94" vaporized=""/>
    <tripinfo id="randomCar_1716082809629504807" depart="20.00" departLane="-1521_1" departPos="0.20" departSpeed="0.00" departDelay="0.00" arrival="110.00" arrivalLane="-1508_1" arrivalPos="11.56" arrivalSpeed="12.48" duration="90.00" routeLength="743.93" waitingTime="17.00" waitingCount="1" stopTime="0.00" timeLoss="28.33" rerouteNo="0" devices="tripinfo_randomCar_1716082809629504807" vType="vehicle.dodge.charger_police_2020" speedFactor="0.92" vaporized=""/>
    <tripinfo id="randomCar_1716082808984688144" depart="18.00" departLane="-1494_1" departPos="0.20" departSpeed="0.00" departDelay="0.00" arrival="111.00" arrivalLane="-1667_1" arrivalPos="0.20" arrivalSpeed="7.87" duration="93.00" routeLength="929.64" waitingTime="2.00" waitingCount="1" stopTime="0.00" timeLoss="26.74" rerouteNo="0" devices="tripinfo_randomCar_1716082808984688144" vType="vehicle.dodge.charger_police_2020" speedFactor="1.09" vaporized=""/>
    <tripinfo id="randomCar_1716082808363075945" depart="17.00" departLane="-1466_1" departPos="5.34" departSpeed="0.00" departDelay="0.00" arrival="113.00" arrivalLane="-1496_1" arrivalPos="1.31" arrivalSpeed="8.49" duration="96.00" routeLength="1183.66" waitingTime="0.00" waitingCount="0" stopTime="0.00" timeLoss="12.41" rerouteNo="0" devices="tripinfo_randomCar_1716082808363075945" vType="vehicle.dodge.charger_police_2020" speedFactor="1.03" vaporized=""/>
    <tripinfo id="randomCar_1716082811514767562" depart="22.00" departLane="-1605_1" departPos="2.67" departSpeed="0.00" departDelay="0.00" arrival="113.00" arrivalLane="-1432_1" arrivalPos="132.51" arrivalSpeed="9.92" duration="91.00" routeLength="744.01" waitingTime="12.00" waitingCount="1" stopTime="0.00" timeLoss="29.68" rerouteNo="0" devices="tripinfo_randomCar_1716082811514767562" vType="vehicle.dodge.charger_police_2020" speedFactor="0.97" vaporized=""/>
    <tripinfo id="randomCar_1716082811509582948" depart="24.00" departLane="-1508_1" departPos="5.34" departSpeed="0.00" departDelay="0.00" arrival="113.00" arrivalLane="-1616_1" arrivalPos="109.27" arrivalSpeed="4.82" duration="89.00" routeLength="739.67" waitingTime="0.00" waitingCount="0" stopTime="0.00" timeLoss="8.67" rerouteNo="0" devices="tripinfo_randomCar_1716082811509582948" vType="vehicle.dodge.charger_police_2020" speedFactor="0.73" vaporized=""/>
    <tripinfo id="randomCar_1716082810882680734" depart="23.00" departLane="-1512_1" departPos="0.20" departSpeed="0.00" departDelay="0.00" arrival="118.00" arrivalLane="-1529_2" arrivalPos="78.96" arrivalSpeed="10.82" duration="95.00" routeLength="483.32" waitingTime="21.00" waitingCount="1" stopTime="0.00" timeLoss="40.53" rerouteNo="0" devices="tripinfo_randomCar_1716082810882680734" vType="vehicle.dodge.charger_police_2020" speedFactor="0.82" vaporized=""/>
    <tripinfo id="randomCar_1716082807754621681" depart="16.00" departLane="-1612_1" departPos="5.34" departSpeed="0.00" departDelay="0.00" arrival="119.00" arrivalLane="-1572_1" arrivalPos="59.16" arrivalSpeed="10.69" duration="103.00" routeLength="728.99" waitingTime="29.00" waitingCount="1" stopTime="0.00" timeLoss="41.29" rerouteNo="0" devices="tripinfo_randomCar_1716082807754621681" vType="vehicle.dodge.charger_police_2020" speedFactor="1.01" vaporized=""/>
    <tripinfo id="randomCar_1716082811557740080" depart="79.00" departLane="-1649_1" departPos="0.20" departSpeed="0.00" departDelay="20.00" arrival="122.00" arrivalLane="-1532_1" arrivalPos="107.18" arrivalSpeed="14.03" duration="43.00" routeLength="616.73" waitingTime="0.00" waitingCount="0" stopTime="0.00" timeLoss="10.27" rerouteNo="0" devices="tripinfo_randomCar_1716082811557740080" vType="vehicle.dodge.charger_police_2020" speedFactor="1.06" vaporized=""/>
    <tripinfo id="randomCar_1716082811532179810" depart="22.00" departLane="-1511_1" departPos="0.20" departSpeed="0.00" departDelay="0.00" arrival="124.00" arrivalLane="-1509_1" arrivalPos="256.85" arrivalSpeed="12.19" duration="102.00" routeLength="1041.01" waitingTime="1.00" waitingCount="1" stopTime="0.00" timeLoss="15.57" rerouteNo="0" devices="tripinfo_randomCar_1716082811532179810" vType="vehicle.dodge.charger_police_2020" speedFactor="0.93" vaporized=""/>
    <tripinfo id="randomCar_1716082812043373707" depart="23.00" departLane="-1632_1" departPos="5.34" departSpeed="0.00" departDelay="0.00" arrival="126.00" arrivalLane="-1493_1" arrivalPos="0.20" arrivalSpeed="13.55" duration="103.00" routeLength="1289.02" waitingTime="0.00" waitingCount="0" stopTime="0.00" timeLoss="12.83" rerouteNo="0" devices="tripinfo_randomCar_1716082812043373707" vType="vehicle.dodge.charger_police_2020" speedFactor="1.04" vaporized=""/>
    <tripinfo id="randomCar_1716082811549812658" depart="27.00" departLane="-1465_1" departPos="5.34" departSpeed="0.00" departDelay="0.00" arrival="127.00" arrivalLane="-1509_1" arrivalPos="256.85" arrivalSpeed="13.83" duration="100.00" routeLength="1102.27" waitingTime="0.00" waitingCount="0" stopTime="0.00" timeLoss="24.99" rerouteNo="0" devices="tripinfo_randomCar_1716082811549812658" vType="vehicle.dodge.charger_police_2020" speedFactor="1.08" vaporized=""/>
    <tripinfo id="randomCar_1716082812040326299" depart="25.00" departLane="-1605_1" departPos="2.67" departSpeed="0.00" departDelay="0.00" arrival="130.00" arrivalLane="-1525_1" arrivalPos="45.95" arrivalSpeed="14.61" duration="105.00" routeLength="1064.26" waitingTime="0.00" waitingCount="0" stopTime="0.00" timeLoss="34.85" rerouteNo="0" devices="tripinfo_randomCar_1716082812040326299" vType="vehicle.dodge.charger_police_2020" speedFactor="1.06" vaporized=""/>
    <tripinfo id="randomCar_1716082810881545431" depart="22.00" departLane="-1607_1" departPos="5.34" departSpeed="0.00" departDelay="0.00" arrival="131.00" arrivalLane="-1465_1" arrivalPos="11.38" arrivalSpeed="12.73" duration="109.00" routeLength="1207.08" waitingTime="0.00" waitingCount="0" stopTime="0.00" timeLoss="18.56" rerouteNo="0" devices="tripinfo_randomCar_1716082810881545431" vType="vehicle.dodge.charger_police_2020" speedFactor="0.97" vaporized=""/>
    <tripinfo id="randomCar_1716082812049071523" depart="23.00" departLane="-1409_1" departPos="5.34" departSpeed="0.00" departDelay="0.00" arrival="131.00" arrivalLane="-1482_1" arrivalPos="0.33" arrivalSpeed="3.92" duration="108.00" routeLength="962.15" waitingTime="4.00" waitingCount="2" stopTime="0.00" timeLoss="38.83" rerouteNo="0" devices="tripinfo_randomCar_1716082812049071523" vType="vehicle.dodge.charger_police_2020" speedFactor="1.12" vaporized=""/>
    <tripinfo id="randomCar_1716082811519033274" depart="22.00" departLane="-1551_1" departPos="5.34" departSpeed="0.00" departDelay="0.00" arrival="134.00" arrivalLane="-1508_1" arrivalPos="11.56" arrivalSpeed="13.63" duration="112.00" routeLength="1184.54" waitingTime="1.00" waitingCount="1" stopTime="0.00" timeLoss="33.23" rerouteNo="0" devices="tripinfo_randomCar_1716082811519033274" vType="vehicle.dodge.charger_police_2020" speedFactor="1.07" vaporized=""/>
    <tripinfo id="randomCar_1716082811480098867" depart="22.00" departLane="-1615_1" departPos="5.34" departSpeed="0.00" departDelay="0.00" arrival="137.00" arrivalLane="-1445_1" arrivalPos="31.10" arrivalSpeed="12.79" duration="115.00" routeLength="1196.73" waitingTime="0.00" waitingCount="0" stopTime="0.00" timeLoss="19.14" rerouteNo="0" devices="tripinfo_randomCar_1716082811480098867" vType="vehicle.dodge.charger_police_2020" speedFactor="0.98" vaporized=""/>
    <tripinfo id="randomCar_1716082811526046493" depart="22.00" departLane="-1391_1" departPos="5.34" departSpeed="0.00" departDelay="0.00" arrival="140.00" arrivalLane="-1594_1" arrivalPos="0.20" arrivalSpeed="7.83" duration="118.00" routeLength="829.43" waitingTime="41.00" waitingCount="3" stopTime="0.00" timeLoss="68.45" rerouteNo="0" devices="tripinfo_randomCar_1716082811526046493" vType="vehicle.dodge.charger_police_2020" speedFactor="1.03" vaporized=""/>
    <tripinfo id="randomCar_1716082810250526205" depart="20.00" departLane="-1603_1" departPos="0.20" departSpeed="0.00" departDelay="0.00" arrival="145.00" arrivalLane="-1552_1" arrivalPos="15.12" arrivalSpeed="6.12" duration="125.00" routeLength="147.48" waitingTime="94.00" waitingCount="5" stopTime="0.00" timeLoss="114.27" rerouteNo="0" devices="tripinfo_randomCar_1716082810250526205" vType="vehicle.dodge.charger_police_2020" speedFactor="1.02" vaporized=""/>
    <tripinfo id="randomCar_1716082811477705161" depart="22.00" departLane="-1490_1" departPos="2.06" departSpeed="0.00" departDelay="0.00" arrival="148.00" arrivalLane="-1572_1" arrivalPos="59.16" arrivalSpeed="10.55" duration="126.00" routeLength="960.07" waitingTime="11.00" waitingCount="1" stopTime="0.00" timeLoss="43.18" rerouteNo="0" devices="tripinfo_randomCar_1716082811477705161" vType="vehicle.dodge.charger_police_2020" speedFactor="0.98" vaporized=""/>
    <tripinfo id="randomCar_1716082811504169433" depart="22.00" departLane="-1576_1" departPos="5.34" departSpeed="0.00" departDelay="0.00" arrival="148.00" arrivalLane="-1550_1" arrivalPos="19.96" arrivalSpeed="14.41" duration="126.00" routeLength="1469.43" waitingTime="1.00" waitingCount="1" stopTime="0.00" timeLoss="26.80" rerouteNo="0" devices="tripinfo_randomCar_1716082811504169433" vType="vehicle.dodge.charger_police_2020" speedFactor="1.09" vaporized=""/>
    <tripinfo id="randomCar_1716082809620030182" depart="19.00" departLane="-1518_1" departPos="5.34" departSpeed="0.00" departDelay="0.00" arrival="150.00" arrivalLane="-1564_1" arrivalPos="56.13" arrivalSpeed="15.34" duration="131.00" routeLength="679.04" waitingTime="67.00" waitingCount="1" stopTime="0.00" timeLoss="88.70" rerouteNo="0" devices="tripinfo_randomCar_1716082809620030182" vType="vehicle.dodge.charger_police_2020" speedFactor="1.16" vaporized=""/>
    <tripinfo id="randomCar_1716082810868982096" depart="24.00" departLane="-1596_1" departPos="5.34" departSpeed="0.00" departDelay="0.00" arrival="158.00" arrivalLane="-1589_1" arrivalPos="47.64" arrivalSpeed="13.56" duration="134.00" routeLength="1060.17" waitingTime="24.00" waitingCount="3" stopTime="0.00" timeLoss="63.90" rerouteNo="0" devices="tripinfo_randomCar_1716082810868982096" vType="vehicle.dodge.charger_police_2020" speedFactor="1.02" vaporized=""/>
    <tripinfo id="randomCar_1716082811472418746" depart="22.00" departLane="-1424_1" departPos="5.34" departSpeed="0.00" departDelay="0.00" arrival="160.00" arrivalLane="-1610_1" arrivalPos="123.98" arrivalSpeed="12.58" duration="138.00" routeLength="1351.85" waitingTime="1.00" waitingCount="1" stopTime="0.00" timeLoss="30.48" rerouteNo="0" devices="tripinfo_randomCar_1716082811472418746" vType="vehicle.dodge.charger_police_2020" speedFactor="0.96" vaporized=""/>
    <tripinfo id="randomCar_1716082812036281088" depart="23.00" departLane="-1414_1" departPos="5.34" departSpeed="0.00" departDelay="0.00" arrival="160.00" arrivalLane="-1542_1" arrivalPos="1.20" arrivalSpeed="10.64" duration="137.00" routeLength="1268.77" waitingTime="3.00" waitingCount="2" stopTime="0.00" timeLoss="51.36" rerouteNo="0" devices="tripinfo_randomCar_1716082812036281088" vType="vehicle.dodge.charger_police_2020" speedFactor="1.03" vaporized=""/>
    <tripinfo id="randomCar_1716082811556149775" depart="22.00" departLane="-1544_1" departPos="5.34" departSpeed="0.00" departDelay="0.00" arrival="161.00" arrivalLane="-1486_1" arrivalPos="44.60" arrivalSpeed="13.41" duration="139.00" routeLength="1104.34" waitingTime="9.00" waitingCount="2" stopTime="0.00" timeLoss="53.29" rerouteNo="0" devices="tripinfo_randomCar_1716082811556149775" vType="vehicle.dodge.charger_police_2020" speedFactor="1.03" vaporized=""/>
    <tripinfo id="randomCar_1716082812042140404" depart="23.00" departLane="-1662_1" departPos="5.34" departSpeed="0.00" departDelay="0.00" arrival="166.00" arrivalLane="-1612_1" arrivalPos="219.69" arrivalSpeed="12.96" duration="143.00" routeLength="1408.08" waitingTime="15.00" waitingCount="1" stopTime="0.00" timeLoss="34.79" rerouteNo="0" devices="tripinfo_randomCar_1716082812042140404" vType="vehicle.dodge.charger_police_2020" speedFactor="0.96" vaporized=""/>
    <tripinfo id="randomCar_1716082811491379598" depart="22.00" departLane="-1619_1" departPos="5.34" departSpeed="0.00" departDelay="0.00" arrival="174.00" arrivalLane="-1483_1" arrivalPos="0.20" arrivalSpeed="5.81" duration="152.00" routeLength="1591.88" waitingTime="0.00" waitingCount="0" stopTime="0.00" timeLoss="41.17" rerouteNo="0" devices="tripinfo_randomCar_1716082811491379598" vType="vehicle.dodge.charger_police_2020" speedFactor="1.00" vaporized=""/>
    <tripinfo id="randomCar_1716082810245077491" depart="20.00" departLane="-1568_1" departPos="5.34" departSpeed="0.00" departDelay="0.00" arrival="175.00" arrivalLane="-1667_1" arrivalPos="0.20" arrivalSpeed="6.82" duration="155.00" routeLength="1056.34" waitingTime="60.00" waitingCount="2" stopTime="0.00" timeLoss="76.53" rerouteNo="0" devices="tripinfo_randomCar_1716082810245077491" vType="vehicle.dodge.charger_police_2020" speedFactor="0.99" vaporized=""/>