<?xml version="1.0" encoding="UTF-8"?>

<!-- generated on 2024-05-24 16:53:12 by Eclipse SUMO GUI Version 1.12.0
<configuration xmlns:xsi="http://www.w3.org/2001/XMLSchema-instance" xsi:noNamespaceSchemaLocation="http://sumo.dlr.de/xsd/sumoConfiguration.xsd">

    <input>
        <net-file value="Adapters/co_simulation/sumo_configuration/ruadapega/output.net.xml"/>
        <route-files value="Adapters/co_simulation/sumo_configuration/ruadapega/carlavtypes.rou.xml,Adapters/co_simulation/sumo_configuration/ruadapega/ruadapega.rou.xml"/>
    </input>

    <output>
        <tripinfo-output value="tripinfo.xml"/>
    </output>

    <traci_server>
        <remote-port value="35439"/>
        <num-clients value="1"/>
    </traci_server>

    <gui_only>
        <gui-settings-file value="Adapters/co_simulation/sumo_configuration/ruadapega/ruadapega.view.xml"/>
    </gui_only>

</configuration>
-->

<tripinfos xmlns:xsi="http://www.w3.org/2001/XMLSchema-instance" xsi:noNamespaceSchemaLocation="http://sumo.dlr.de/xsd/tripinfo_file.xsd">
    <tripinfo id="randomCar_1716565999128734181" depart="10.00" departLane="-493_0" departPos="0.20" departSpeed="0.00" departDelay="0.00" arrival="19.00" arrivalLane="-487_1" arrivalPos="1.43" arrivalSpeed="7.07" duration="9.00" routeLength="41.32" waitingTime="0.00" waitingCount="0" stopTime="0.00" timeLoss="3.47" rerouteNo="0" devices="tripinfo_randomCar_1716565999128734181" vType="vehicle.dodge.charger_police_2020" speedFactor="0.89" vaporized=""/>
    <tripinfo id="randomCar_1716565997890707110" depart="9.00" departLane="-485_1" departPos="1.75" departSpeed="0.00" departDelay="0.00" arrival="22.00" arrivalLane="-496_0" arrivalPos="0.20" arrivalSpeed="7.70" duration="13.00" routeLength="35.37" waitingTime="3.00" waitingCount="1" stopTime="0.00" timeLoss="9.09" rerouteNo="0" devices="tripinfo_randomCar_1716565997890707110" vType="vehicle.dodge.charger_police_2020" speedFactor="1.01" vaporized=""/>
    <tripinfo id="randomCar_1716565999750970162" depart="12.00" departLane="-482_0" departPos="0.20" departSpeed="0.00" departDelay="0.00" arrival="24.00" arrivalLane="-474_1" arrivalPos="38.61" arrivalSpeed="4.92" duration="12.00" routeLength="57.65" waitingTime="0.00" waitingCount="0" stopTime="0.00" timeLoss="8.22" rerouteNo="0" devices="tripinfo_randomCar_1716565999750970162" vType="vehicle.dodge.charger_police_2020" speedFactor="1.12" vaporized=""/>
    <tripinfo id="randomCar_1716566001610693955" depart="14.00" departLane="-485_1" departPos="1.75" departSpeed="0.00" departDelay="0.00" arrival="27.00" arrivalLane="-452_0" arrivalPos="65.65" arrivalSpeed="7.49" duration="13.00" routeLength="70.26" waitingTime="0.00" waitingCount="0" stopTime="0.00" timeLoss="10.17" rerouteNo="0" devices="tripinfo_randomCar_1716566001610693955" vType="vehicle.dodge.charger_police_2020" speedFactor="0.98" vaporized=""/>
    <tripinfo id="randomCar_1716566002850789358" depart="17.00" departLane="-489_1" departPos="2.44" departSpeed="0.00" departDelay="1.00" arrival="28.00" arrivalLane="-481_0" arrivalPos="0.20" arrivalSpeed="7.81" duration="11.00" routeLength="37.54" waitingTime="0.00" waitingCount="0" stopTime="0.00" timeLoss="6.71" rerouteNo="0" devices="tripinfo_randomCar_1716566002850789358" vType="vehicle.dodge.charger_police_2020" speedFactor="1.18" vaporized=""/>
    <tripinfo id="randomMotorcycle_1716566005329174010" depart="22.00" departLane="-483_0" departPos="0.20" departSpeed="0.00" departDelay="2.00" arrival="35.00" arrivalLane="-494_0" arrivalPos="0.20" arrivalSpeed="3.11" duration="13.00" routeLength="20.37" waitingTime="3.00" waitingCount="1" stopTime="0.00" timeLoss="10.35" rerouteNo="0" devices="tripinfo_randomMotorcycle_1716566005329174010" vType="vehicle.kawasaki.ninja" speedFactor="1.03" vaporized=""/>
    <tripinfo id="randomCar_1716565999750188326" depart="12.00" departLane="-526_1" departPos="5.34" departSpeed="0.00" departDelay="1.00" arrival="36.00" arrivalLane="-513_1" arrivalPos="61.35" arrivalSpeed="13.99" duration="24.00" routeLength="222.81" waitingTime="0.00" waitingCount="0" stopTime="0.00" timeLoss="6.88" rerouteNo="0" devices="tripinfo_randomCar_1716565999750188326" vType="vehicle.dodge.charger_police_2020" speedFactor="1.05" vaporized=""/>
    <tripinfo id="randomCar_1716566000370350942" depart="12.00" departLane="-491_1" departPos="1.79" departSpeed="0.00" departDelay="0.00" arrival="38.00" arrivalLane="-474_1" arrivalPos="38.61" arrivalSpeed="5.95" duration="26.00" routeLength="84.63" waitingTime="5.00" waitingCount="1" stopTime="0.00" timeLoss="17.52" rerouteNo="0" devices="tripinfo_randomCar_1716566000370350942" vType="vehicle.dodge.charger_police_2020" speedFactor="0.88" vaporized=""/>
    <tripinfo id="randomMotorcycle_1716566010289557520" depart="28.00" departLane="-526_1" departPos="2.14" departSpeed="0.00" departDelay="0.00" arrival="40.00" arrivalLane="-528_1" arrivalPos="41.70" arrivalSpeed="13.72" duration="12.00" routeLength="60.64" waitingTime="1.00" waitingCount="1" stopTime="0.00" timeLoss="6.68" rerouteNo="0" devices="tripinfo_randomMotorcycle_1716566010289557520" vType="vehicle.kawasaki.ninja" speedFactor="1.04" vaporized=""/>
    <tripinfo id="randomCar_1716565999748329630" depart="19.00" departLane="-484_1" departPos="2.17" departSpeed="0.00" departDelay="8.00" arrival="47.00" arrivalLane="-486_1" arrivalPos="3.65" arrivalSpeed="6.85" duration="28.00" routeLength="17.93" waitingTime="11.00" waitingCount="1" stopTime="0.00" timeLoss="26.78" rerouteNo="0" devices="tripinfo_randomCar_1716565999748329630" vType="vehicle.dodge.charger_police_2020" speedFactor="1.09" vaporized=""/>
    <personinfo id="randomPedestrian_1716566023313899604" depart="49.00" type="DEFAULT_PEDTYPE"/>
</tripinfos>
