<?xml version="1.0" encoding="UTF-8"?>

<!-- generated on 2024-06-03 15:25:45 by Eclipse SUMO GUI Version 1.12.0
<configuration xmlns:xsi="http://www.w3.org/2001/XMLSchema-instance" xsi:noNamespaceSchemaLocation="http://sumo.dlr.de/xsd/sumoConfiguration.xsd">

    <input>
        <net-file value="Adapters/co_simulation/sumo_configuration/simple-map/UA.net.xml"/>
        <route-files value="Adapters/co_simulation/sumo_configuration/simple-map/carlavtypes.rou.xml,Adapters/co_simulation/sumo_configuration/simple-map/simple-map.rou.xml"/>
    </input>

    <output>
        <tripinfo-output value="tripinfo.xml"/>
    </output>

    <traci_server>
        <remote-port value="40391"/>
        <num-clients value="1"/>
    </traci_server>

    <gui_only>
        <gui-settings-file value="Adapters/co_simulation/sumo_configuration/simple-map/simple-map.view.xml"/>
        <quit-on-end value="true"/>
    </gui_only>

</configuration>
-->

<tripinfos xmlns:xsi="http://www.w3.org/2001/XMLSchema-instance" xsi:noNamespaceSchemaLocation="http://sumo.dlr.de/xsd/tripinfo_file.xsd">
    <tripinfo id="0" depart="3.00" departLane="-1466_1" departPos="5.34" departSpeed="0.00" departDelay="0.00" arrival="15.00" arrivalLane="-1464_1" arrivalPos="26.55" arrivalSpeed="14.10" duration="12.00" routeLength="108.15" waitingTime="0.00" waitingCount="0" stopTime="0.00" timeLoss="3.65" rerouteNo="0" devices="tripinfo_0" vType="vehicle.dodge.charger_police_2020" speedFactor="1.06" vaporized="traci"/>
    <tripinfo id="randomCar_1717424820132368527" depart="118.00" departLane="-1541_1" departPos="0.20" departSpeed="0.00" departDelay="0.00" arrival="119.00" arrivalLane="-1541_1" arrivalPos="0.20" arrivalSpeed="1.89" duration="1.00" routeLength="0.00" waitingTime="0.00" waitingCount="0" stopTime="0.00" timeLoss="0.87" rerouteNo="0" devices="tripinfo_randomCar_1717424820132368527" vType="vehicle.dodge.charger_police_2020" speedFactor="1.07" vaporized=""/>
    <tripinfo id="randomCar_1717424819516004737" depart="118.00" departLane="-1558_1" departPos="5.34" departSpeed="0.00" departDelay="0.00" arrival="120.00" arrivalLane="-1558_1" arrivalPos="8.19" arrivalSpeed="4.91" duration="2.00" routeLength="2.85" waitingTime="0.00" waitingCount="0" stopTime="0.00" timeLoss="1.49" rerouteNo="0" devices="tripinfo_randomCar_1717424819516004737" vType="vehicle.dodge.charger_police_2020" speedFactor="1.04" vaporized=""/>
    <tripinfo id="randomCar_1717424819872789890" depart="118.00" departLane="-1640_0" departPos="5.34" departSpeed="0.00" departDelay="0.00" arrival="128.00" arrivalLane="-1640_0" arrivalPos="109.95" arrivalSpeed="20.89" duration="10.00" routeLength="104.61" waitingTime="0.00" waitingCount="0" stopTime="0.00" timeLoss="6.23" rerouteNo="0" devices="tripinfo_randomCar_1717424819872789890" vType="vehicle.dodge.charger_police_2020" speedFactor="1.14" vaporized=""/>
    <tripinfo id="randomCar_1717424819940286979" depart="118.00" departLane="-1642_1" departPos="5.34" departSpeed="0.00" departDelay="0.00" arrival="128.00" arrivalLane="-1629_1" arrivalPos="26.02" arrivalSpeed="11.57" duration="10.00" routeLength="76.75" waitingTime="0.00" waitingCount="0" stopTime="0.00" timeLoss="3.25" rerouteNo="0" devices="tripinfo_randomCar_1717424819940286979" vType="vehicle.dodge.charger_police_2020" speedFactor="0.88" vaporized=""/>
    <tripinfo id="randomCar_1717424820161027162" depart="118.00" departLane="-1578_1" departPos="0.11" departSpeed="0.00" departDelay="0.00" arrival="130.00" arrivalLane="-1552_2" arrivalPos="15.11" arrivalSpeed="9.98" duration="12.00" routeLength="68.80" waitingTime="0.00" waitingCount="0" stopTime="0.00" timeLoss="5.56" rerouteNo="0" devices="tripinfo_randomCar_1717424820161027162" vType="vehicle.dodge.charger_police_2020" speedFactor="1.07" vaporized=""/>
    <tripinfo id="randomCar_1717424820150274636" depart="118.00" departLane="-1559_1" departPos="0.55" departSpeed="0.00" departDelay="0.00" arrival="132.00" arrivalLane="-1666_1" arrivalPos="25.60" arrivalSpeed="12.53" duration="14.00" routeLength="90.50" waitingTime="0.00" waitingCount="0" stopTime="0.00" timeLoss="6.14" rerouteNo="0" devices="tripinfo_randomCar_1717424820150274636" vType="vehicle.dodge.charger_police_2020" speedFactor="1.10" vaporized=""/>
    <tripinfo id="randomCar_1717424820351483048" depart="119.00" departLane="-1614_1" departPos="5.34" departSpeed="0.00" departDelay="0.00" arrival="137.00" arrivalLane="-1615_1" arrivalPos="42.90" arrivalSpeed="14.19" duration="18.00" routeLength="148.06" waitingTime="0.00" waitingCount="0" stopTime="0.00" timeLoss="3.27" rerouteNo="0" devices="tripinfo_randomCar_1717424820351483048" vType="vehicle.dodge.charger_police_2020" speedFactor="1.10" vaporized=""/>
    <tripinfo id="randomCar_1717424819554926593" depart="121.00" departLane="-1533_1" departPos="5.34" departSpeed="0.00" departDelay="3.00" arrival="138.00" arrivalLane="-1573_1" arrivalPos="77.56" arrivalSpeed="10.93" duration="17.00" routeLength="152.53" waitingTime="0.00" waitingCount="0" stopTime="0.00" timeLoss="4.08" rerouteNo="0" devices="tripinfo_randomCar_1717424819554926593" vType="vehicle.dodge.charger_police_2020" speedFactor="1.03" vaporized=""/>
    <tripinfo id="randomCar_1717424819624649909" depart="118.00" departLane="-1535_1" departPos="5.28" departSpeed="0.00" departDelay="0.00" arrival="139.00" arrivalLane="-1603_1" arrivalPos="0.20" arrivalSpeed="9.38" duration="21.00" routeLength="88.69" waitingTime="2.00" waitingCount="1" stopTime="0.00" timeLoss="11.35" rerouteNo="0" devices="tripinfo_randomCar_1717424819624649909" vType="vehicle.dodge.charger_police_2020" speedFactor="1.00" vaporized=""/>
    <tripinfo id="randomCar_1717424819868417738" depart="118.00" departLane="-1634_1" departPos="5.34" departSpeed="0.00" departDelay="0.00" arrival="141.00" arrivalLane="-1462_1" arrivalPos="7.49" arrivalSpeed="10.78" duration="23.00" routeLength="199.14" waitingTime="0.00" waitingCount="0" stopTime="0.00" timeLoss="8.56" rerouteNo="0" devices="tripinfo_randomCar_1717424819868417738" vType="vehicle.dodge.charger_police_2020" speedFactor="1.13" vaporized=""/>
    <tripinfo id="randomCar_1717424820116704543" depart="118.00" departLane="-1619_1" departPos="5.34" departSpeed="0.00" departDelay="0.00" arrival="141.00" arrivalLane="-1648_1" arrivalPos="0.25" arrivalSpeed="7.34" duration="23.00" routeLength="77.32" waitingTime="7.00" waitingCount="1" stopTime="0.00" timeLoss="18.14" rerouteNo="0" devices="tripinfo_randomCar_1717424820116704543" vType="vehicle.dodge.charger_police_2020" speedFactor="0.83" vaporized=""/>
    <tripinfo id="randomCar_1717424819761086483" depart="118.00" departLane="-1658_1" departPos="5.34" departSpeed="0.00" departDelay="0.00" arrival="145.00" arrivalLane="-1509_2" arrivalPos="256.85" arrivalSpeed="13.00" duration="27.00" routeLength="300.35" waitingTime="0.00" waitingCount="0" stopTime="0.00" timeLoss="4.43" rerouteNo="0" devices="tripinfo_randomCar_1717424819761086483" vType="vehicle.dodge.charger_police_2020" speedFactor="0.96" vaporized=""/>
    <tripinfo id="randomCar_1717424819976624204" depart="124.00" departLane="-1455_1" departPos="3.17" departSpeed="0.00" departDelay="6.00" arrival="148.00" arrivalLane="-1518_1" arrivalPos="20.08" arrivalSpeed="11.76" duration="24.00" routeLength="124.17" waitingTime="0.00" waitingCount="0" stopTime="0.00" timeLoss="12.45" rerouteNo="0" devices="tripinfo_randomCar_1717424819976624204" vType="vehicle.dodge.charger_police_2020" speedFactor="0.89" vaporized=""/>
    <tripinfo id="randomCar_1717424819917991618" depart="118.00" departLane="-1607_1" departPos="5.34" departSpeed="0.00" departDelay="0.00" arrival="149.00" arrivalLane="-1657_2" arrivalPos="0.48" arrivalSpeed="5.37" duration="31.00" routeLength="344.02" waitingTime="0.00" waitingCount="0" stopTime="0.00" timeLoss="9.16" rerouteNo="0" devices="tripinfo_randomCar_1717424819917991618" vType="vehicle.dodge.charger_police_2020" speedFactor="1.12" vaporized=""/>
    <tripinfo id="randomCar_1717424819983451684" depart="118.00" departLane="-1631_1" departPos="5.34" departSpeed="0.00" departDelay="0.00" arrival="149.00" arrivalLane="-1462_1" arrivalPos="7.49" arrivalSpeed="10.38" duration="31.00" routeLength="291.22" waitingTime="0.00" waitingCount="0" stopTime="0.00" timeLoss="8.31" rerouteNo="0" devices="tripinfo_randomCar_1717424819983451684" vType="vehicle.dodge.charger_police_2020" speedFactor="1.03" vaporized=""/>
    <tripinfo id="randomCar_1717424820408864736" depart="127.00" departLane="-1519_1" departPos="5.34" departSpeed="0.00" departDelay="8.00" arrival="151.00" arrivalLane="-1515_1" arrivalPos="88.22" arrivalSpeed="12.12" duration="24.00" routeLength="194.49" waitingTime="0.00" waitingCount="0" stopTime="0.00" timeLoss="7.69" rerouteNo="0" devices="tripinfo_randomCar_1717424820408864736" vType="vehicle.dodge.charger_police_2020" speedFactor="0.96" vaporized=""/>
    <tripinfo id="randomCar_1717424819797084304" depart="118.00" departLane="-1622_2" departPos="5.34" departSpeed="0.00" departDelay="0.00" arrival="154.00" arrivalLane="-1530_2" arrivalPos="66.08" arrivalSpeed="11.36" duration="36.00" routeLength="160.55" waitingTime="13.00" waitingCount="1" stopTime="0.00" timeLoss="22.36" rerouteNo="0" devices="tripinfo_randomCar_1717424819797084304" vType="vehicle.dodge.charger_police_2020" speedFactor="1.07" vaporized=""/>
    <tripinfo id="randomCar_1717424819397315849" depart="118.00" departLane="-1476_1" departPos="5.34" departSpeed="0.00" departDelay="0.00" arrival="155.00" arrivalLane="-1421_1" arrivalPos="172.61" arrivalSpeed="13.55" duration="37.00" routeLength="430.59" waitingTime="0.00" waitingCount="0" stopTime="0.00" timeLoss="6.46" rerouteNo="0" devices="tripinfo_randomCar_1717424819397315849" vType="vehicle.dodge.charger_police_2020" speedFactor="1.04" vaporized=""/>
    <tripinfo id="randomCar_1717424819875011016" depart="118.00" departLane="-1545_1" departPos="5.34" departSpeed="0.00" departDelay="0.00" arrival="155.00" arrivalLane="-1665_2" arrivalPos="15.61" arrivalSpeed="9.46" duration="37.00" routeLength="288.67" waitingTime="0.00" waitingCount="0" stopTime="0.00" timeLoss="9.75" rerouteNo="0" devices="tripinfo_randomCar_1717424819875011016" vType="vehicle.dodge.charger_police_2020" speedFactor="0.89" vaporized=""/>
    <tripinfo id="randomCar_1717424819958671794" depart="124.00" departLane="-1589_1" departPos="5.34" departSpeed="0.00" departDelay="6.00" arrival="156.00" arrivalLane="-1648_1" arrivalPos="0.25" arrivalSpeed="8.42" duration="32.00" routeLength="126.75" waitingTime="8.00" waitingCount="1" stopTime="0.00" timeLoss="21.64" rerouteNo="0" devices="tripinfo_randomCar_1717424819958671794" vType="vehicle.dodge.charger_police_2020" speedFactor="1.00" vaporized=""/>
    <tripinfo id="randomCar_1717424819545127678" depart="118.00" departLane="-1485_1" departPos="0.20" departSpeed="0.00" departDelay="0.00" arrival="160.00" arrivalLane="-1635_1" arrivalPos="70.06" arrivalSpeed="13.03" duration="42.00" routeLength="272.82" waitingTime="8.00" waitingCount="1" stopTime="0.00" timeLoss="19.12" rerouteNo="0" devices="tripinfo_randomCar_1717424819545127678" vType="vehicle.dodge.charger_police_2020" speedFactor="0.96" vaporized=""/>
    <tripinfo id="randomCar_1717424819961185524" depart="121.00" departLane="-1545_1" departPos="5.34" departSpeed="0.00" departDelay="3.00" arrival="160.00" arrivalLane="-1563_1" arrivalPos="14.38" arrivalSpeed="9.47" duration="39.00" routeLength="300.16" waitingTime="0.00" waitingCount="0" stopTime="0.00" timeLoss="13.98" rerouteNo="0" devices="tripinfo_randomCar_1717424819961185524" vType="vehicle.dodge.charger_police_2020" speedFactor="0.98" vaporized=""/>
    <tripinfo id="randomCar_1717424819695491215" depart="118.00" departLane="-1604_1" departPos="5.34" departSpeed="0.00" departDelay="0.00" arrival="161.00" arrivalLane="-1588_1" arrivalPos="0.20" arrivalSpeed="6.30" duration="43.00" routeLength="149.17" waitingTime="11.00" waitingCount="2" stopTime="0.00" timeLoss="28.25" rerouteNo="0" devices="tripinfo_randomCar_1717424819695491215" vType="vehicle.dodge.charger_police_2020" speedFactor="1.01" vaporized=""/>
    <tripinfo id="randomCar_1717424820203683878" depart="125.00" departLane="-1539_1" departPos="5.34" departSpeed="0.00" departDelay="7.00" arrival="161.00" arrivalLane="-1439_1" arrivalPos="0.20" arrivalSpeed="7.50" duration="36.00" routeLength="174.74" waitingTime="10.00" waitingCount="1" stopTime="0.00" timeLoss="22.32" rerouteNo="0" devices="tripinfo_randomCar_1717424820203683878" vType="vehicle.dodge.charger_police_2020" speedFactor="1.11" vaporized=""/>
    <tripinfo id="randomCar_1717424820057272348" depart="121.00" departLane="-1597_1" departPos="5.34" departSpeed="0.00" departDelay="3.00" arrival="165.00" arrivalLane="-1629_1" arrivalPos="26.02" arrivalSpeed="12.53" duration="44.00" routeLength="191.40" waitingTime="16.00" waitingCount="1" stopTime="0.00" timeLoss="28.23" rerouteNo="0" devices="tripinfo_randomCar_1717424820057272348" vType="vehicle.dodge.charger_police_2020" speedFactor="1.00" vaporized=""/>
    <tripinfo id="randomCar_1717424820036095200" depart="121.00" departLane="-1595_1" departPos="5.34" departSpeed="0.00" departDelay="3.00" arrival="169.00" arrivalLane="-1472_1" arrivalPos="59.90" arrivalSpeed="11.92" duration="48.00" routeLength="452.78" waitingTime="0.00" waitingCount="0" stopTime="0.00" timeLoss="9.90" rerouteNo="0" devices="tripinfo_randomCar_1717424820036095200" vType="vehicle.dodge.charger_police_2020" speedFactor="0.89" vaporized=""/>
    <tripinfo id="randomCar_1717424819990863171" depart="118.00" departLane="-1623.244_1" departPos="5.34" departSpeed="0.00" departDelay="0.00" arrival="171.00" arrivalLane="-1656_2" arrivalPos="1.57" arrivalSpeed="11.37" duration="53.00" routeLength="140.01" waitingTime="33.00" waitingCount="1" stopTime="0.00" timeLoss="43.08" rerouteNo="0" devices="tripinfo_randomCar_1717424819990863171" vType="vehicle.dodge.charger_police_2020" speedFactor="1.03" vaporized=""/>
    <tripinfo id="randomCar_1717424820142481745" depart="135.00" departLane="-1408_1" departPos="0.20" departSpeed="0.00" departDelay="17.00" arrival="171.00" arrivalLane="-1517_1" arrivalPos="11.76" arrivalSpeed="12.99" duration="36.00" routeLength="191.79" waitingTime="4.00" waitingCount="2" stopTime="0.00" timeLoss="18.75" rerouteNo="0" devices="tripinfo_randomCar_1717424820142481745" vType="vehicle.dodge.charger_police_2020" speedFactor="0.98" vaporized=""/>
    <tripinfo id="randomCar_1717424820523478913" depart="124.00" departLane="-1646_1" departPos="5.34" departSpeed="0.00" departDelay="5.00" arrival="172.00" arrivalLane="-1439_1" arrivalPos="0.20" arrivalSpeed="8.92" duration="48.00" routeLength="282.18" waitingTime="10.00" waitingCount="1" stopTime="0.00" timeLoss="29.26" rerouteNo="0" devices="tripinfo_randomCar_1717424820523478913" vType="vehicle.dodge.charger_police_2020" speedFactor="1.00" vaporized=""/>
    <tripinfo id="randomCar_1717424819735918588" depart="118.00" departLane="-1434_1" departPos="0.20" departSpeed="0.00" departDelay="0.00" arrival="173.00" arrivalLane="-1630_1" arrivalPos="19.33" arrivalSpeed="6.74" duration="55.00" routeLength="412.60" waitingTime="6.00" waitingCount="1" stopTime="0.00" timeLoss="23.82" rerouteNo="0" devices="tripinfo_randomCar_1717424819735918588" vType="vehicle.dodge.charger_police_2020" speedFactor="0.95" vaporized=""/>
    <tripinfo id="randomCar_1717424819458104860" depart="118.00" departLane="-1624_1" departPos="5.34" departSpeed="0.00" departDelay="0.00" arrival="175.00" arrivalLane="-1477_1" arrivalPos="41.34" arrivalSpeed="7.07" duration="57.00" routeLength="558.47" waitingTime="0.00" waitingCount="0" stopTime="0.00" timeLoss="10.19" rerouteNo="0" devices="tripinfo_randomCar_1717424819458104860" vType="vehicle.dodge.charger_police_2020" speedFactor="0.90" vaporized=""/>
    <tripinfo id="randomCar_1717424819532029425" depart="118.00" departLane="-1413_1" departPos="5.34" departSpeed="0.00" departDelay="0.00" arrival="175.00" arrivalLane="-1560_1" arrivalPos="211.16" arrivalSpeed="12.54" duration="57.00" routeLength="563.29" waitingTime="0.00" waitingCount="0" stopTime="0.00" timeLoss="11.32" rerouteNo="0" devices="tripinfo_randomCar_1717424819532029425" vType="vehicle.dodge.charger_police_2020" speedFactor="0.94" vaporized=""/>
    <tripinfo id="randomCar_1717424819956930674" depart="118.00" departLane="-1593_1" departPos="5.34" departSpeed="0.00" departDelay="0.00" arrival="177.00" arrivalLane="-1608_1" arrivalPos="37.68" arrivalSpeed="12.42" duration="59.00" routeLength="625.21" waitingTime="0.00" waitingCount="0" stopTime="0.00" timeLoss="8.84" rerouteNo="0" devices="tripinfo_randomCar_1717424819956930674" vType="vehicle.dodge.charger_police_2020" speedFactor="0.91" vaporized=""/>
    <tripinfo id="randomCar_1717424819857501311" depart="121.00" departLane="-1580_1" departPos="5.34" departSpeed="0.00" departDelay="3.00" arrival="178.00" arrivalLane="-1528_1" arrivalPos="130.35" arrivalSpeed="13.65" duration="57.00" routeLength="516.60" waitingTime="1.00" waitingCount="1" stopTime="0.00" timeLoss="17.35" rerouteNo="0" devices="tripinfo_randomCar_1717424819857501311" vType="vehicle.dodge.charger_police_2020" speedFactor="1.01" vaporized=""/>
    <tripinfo id="randomCar_1717424820553872607" depart="131.00" departLane="-1535_1" departPos="5.28" departSpeed="0.00" departDelay="12.00" arrival="179.00" arrivalLane="-1596_1" arrivalPos="134.55" arrivalSpeed="10.99" duration="48.00" routeLength="375.93" waitingTime="9.00" waitingCount="1" stopTime="0.00" timeLoss="25.98" rerouteNo="0" devices="tripinfo_randomCar_1717424820553872607" vType="vehicle.dodge.charger_police_2020" speedFactor="1.15" vaporized=""/>
    <tripinfo id="randomCar_1717424819682749466" depart="118.00" departLane="-1623_1" departPos="5.34" departSpeed="0.00" departDelay="0.00" arrival="180.00" arrivalLane="-1483_1" arrivalPos="0.21" arrivalSpeed="6.13" duration="62.00" routeLength="380.44" waitingTime="20.00" waitingCount="2" stopTime="0.00" timeLoss="33.94" rerouteNo="0" devices="tripinfo_randomCar_1717424819682749466" vType="vehicle.dodge.charger_police_2020" speedFactor="1.02" vaporized=""/>
    <tripinfo id="randomCar_1717424820140543122" depart="119.00" departLane="-1541_1" departPos="0.20" departSpeed="0.00" departDelay="1.00" arrival="180.00" arrivalLane="-1630_1" arrivalPos="19.33" arrivalSpeed="10.89" duration="61.00" routeLength="428.69" waitingTime="11.00" waitingCount="2" stopTime="0.00" timeLoss="27.94" rerouteNo="0" devices="tripinfo_randomCar_1717424820140543122" vType="vehicle.dodge.charger_police_2020" speedFactor="0.97" vaporized=""/>
    <tripinfo id="randomCar_1717424819891869513" depart="121.00" departLane="-1519_1" departPos="5.34" departSpeed="0.00" departDelay="3.00" arrival="182.00" arrivalLane="-1529_1" arrivalPos="78.97" arrivalSpeed="12.69" duration="61.00" routeLength="614.45" waitingTime="0.00" waitingCount="0" stopTime="0.00" timeLoss="13.09" rerouteNo="0" devices="tripinfo_randomCar_1717424819891869513" vType="vehicle.dodge.charger_police_2020" speedFactor="0.96" vaporized=""/>
    <tripinfo id="randomCar_1717424819986168616" depart="121.00" departLane="-1648_1" departPos="0.25" departSpeed="0.00" departDelay="3.00" arrival="182.00" arrivalLane="-1630_1" arrivalPos="19.33" arrivalSpeed="13.30" duration="61.00" routeLength="562.48" waitingTime="3.00" waitingCount="1" stopTime="0.00" timeLoss="21.20" rerouteNo="0" devices="tripinfo_randomCar_1717424819986168616" vType="vehicle.dodge.charger_police_2020" speedFactor="1.08" vaporized=""/>
    <tripinfo id="randomCar_1717424819547811910" depart="121.00" departLane="-1646_1" departPos="5.34" departSpeed="0.00" departDelay="3.00" arrival="183.00" arrivalLane="-1596_1" arrivalPos="134.55" arrivalSpeed="12.82" duration="62.00" routeLength="479.46" waitingTime="8.00" waitingCount="1" stopTime="0.00" timeLoss="28.78" rerouteNo="0" devices="tripinfo_randomCar_1717424819547811910" vType="vehicle.dodge.charger_police_2020" speedFactor="0.98" vaporized=""/>
    <tripinfo id="randomCar_1717424819428198410" depart="118.00" departLane="-1408_1" departPos="0.20" departSpeed="0.00" departDelay="0.00" arrival="185.00" arrivalLane="-1643_1" arrivalPos="73.81" arrivalSpeed="12.61" duration="67.00" routeLength="576.54" waitingTime="17.00" waitingCount="2" stopTime="0.00" timeLoss="34.21" rerouteNo="0" devices="tripinfo_randomCar_1717424819428198410" vType="vehicle.dodge.charger_police_2020" speedFactor="1.00" vaporized=""/>
    <tripinfo id="randomCar_1717424820577081702" depart="121.00" departLane="-1587_1" departPos="5.34" departSpeed="0.00" departDelay="2.00" arrival="185.00" arrivalLane="-1516_1" arrivalPos="11.61" arrivalSpeed="11.65" duration="64.00" routeLength="128.51" waitingTime="39.00" waitingCount="3" stopTime="0.00" timeLoss="57.02" rerouteNo="0" devices="tripinfo_randomCar_1717424820577081702" vType="vehicle.dodge.charger_police_2020" speedFactor="1.12" vaporized=""/>
    <tripinfo id="randomCar_1717424819866484116" depart="118.00" departLane="-1483_1" departPos="0.21" departSpeed="0.00" departDelay="0.00" arrival="186.00" arrivalLane="-1445_1" arrivalPos="31.11" arrivalSpeed="5.02" duration="68.00" routeLength="464.84" waitingTime="13.00" waitingCount="2" stopTime="0.00" timeLoss="29.69" rerouteNo="0" devices="tripinfo_randomCar_1717424819866484116" vType="vehicle.dodge.charger_police_2020" speedFactor="0.94" vaporized=""/>
    <tripinfo id="randomCar_1717424819689738348" depart="118.00" departLane="-1419_1" departPos="5.34" departSpeed="0.00" departDelay="0.00" arrival="188.00" arrivalLane="-1651_1" arrivalPos="174.89" arrivalSpeed="12.78" duration="70.00" routeLength="618.15" waitingTime="1.00" waitingCount="1" stopTime="0.00" timeLoss="18.44" rerouteNo="0" devices="tripinfo_randomCar_1717424819689738348" vType="vehicle.dodge.charger_police_2020" speedFactor="0.92" vaporized=""/>
    <tripinfo id="randomCar_1717424819440229351" depart="118.00" departLane="-1595_1" departPos="5.34" departSpeed="0.00" departDelay="0.00" arrival="189.00" arrivalLane="-1573_1" arrivalPos="77.56" arrivalSpeed="11.78" duration="71.00" routeLength="552.16" waitingTime="11.00" waitingCount="1" stopTime="0.00" timeLoss="32.74" rerouteNo="0" devices="tripinfo_randomCar_1717424819440229351" vType="vehicle.dodge.charger_police_2020" speedFactor="1.10" vaporized=""/>
    <tripinfo id="randomCar_1717424819858287420" depart="118.00" departLane="-1613_2" departPos="5.34" departSpeed="0.00" departDelay="0.00" arrival="190.00" arrivalLane="-1647_1" arrivalPos="0.21" arrivalSpeed="11.20" duration="72.00" routeLength="301.71" waitingTime="32.00" waitingCount="1" stopTime="0.00" timeLoss="54.02" rerouteNo="0" devices="tripinfo_randomCar_1717424819858287420" vType="vehicle.dodge.charger_police_2020" speedFactor="1.12" vaporized=""/>
    <tripinfo id="randomCar_1717424820197409279" depart="140.00" departLane="-1408_1" departPos="0.20" departSpeed="0.00" departDelay="22.00" arrival="195.00" arrivalLane="-1533_1" arrivalPos="68.87" arrivalSpeed="14.45" duration="55.00" routeLength="526.38" waitingTime="5.00" waitingCount="1" stopTime="0.00" timeLoss="18.83" rerouteNo="0" devices="tripinfo_randomCar_1717424820197409279" vType="vehicle.dodge.charger_police_2020" speedFactor="1.06" vaporized=""/>
    <tripinfo id="randomCar_1717424819561793173" depart="118.00" departLane="-1574_1" departPos="5.34" departSpeed="0.00" departDelay="0.00" arrival="197.00" arrivalLane="-1482_1" arrivalPos="0.10" arrivalSpeed="3.25" duration="79.00" routeLength="905.95" waitingTime="0.00" waitingCount="0" stopTime="0.00" timeLoss="15.92" rerouteNo="0" devices="tripinfo_randomCar_1717424819561793173" vType="vehicle.dodge.charger_police_2020" speedFactor="1.09" vaporized=""/>
    <tripinfo id="randomCar_1717424819838032583" depart="118.00" departLane="-1603_1" departPos="0.20" departSpeed="0.00" departDelay="0.00" arrival="198.00" arrivalLane="-1433_1" arrivalPos="10.24" arrivalSpeed="9.30" duration="80.00" routeLength="108.94" waitingTime="61.00" waitingCount="1" stopTime="0.00" timeLoss="74.45" rerouteNo="0" devices="tripinfo_randomCar_1717424819838032583" vType="vehicle.dodge.charger_police_2020" speedFactor="1.01" vaporized=""/>
    <tripinfo id="randomCar_1717424819436667909" depart="118.00" departLane="-1646_1" departPos="5.34" departSpeed="0.00" departDelay="0.00" arrival="199.00" arrivalLane="-1533_1" arrivalPos="68.87" arrivalSpeed="11.03" duration="81.00" routeLength="777.86" waitingTime="0.00" waitingCount="0" stopTime="0.00" timeLoss="19.35" rerouteNo="0" devices="tripinfo_randomCar_1717424819436667909" vType="vehicle.dodge.charger_police_2020" speedFactor="0.85" vaporized=""/>
    <tripinfo id="randomCar_1717424819519663080" depart="118.00" departLane="-1486_1" departPos="5.34" departSpeed="0.00" departDelay="0.00" arrival="199.00" arrivalLane="-1601_1" arrivalPos="6.57" arrivalSpeed="11.04" duration="81.00" routeLength="489.79" waitingTime="26.00" waitingCount="2" stopTime="0.00" timeLoss="44.31" rerouteNo="0" devices="tripinfo_randomCar_1717424819519663080" vType="vehicle.dodge.charger_police_2020" speedFactor="1.02" vaporized=""/>
    <tripinfo id="randomCar_1717424819981627763" depart="118.00" departLane="-1556_1" departPos="5.34" departSpeed="0.00" departDelay="0.00" arrival="200.00" arrivalLane="-1667_1" arrivalPos="0.10" arrivalSpeed="6.18" duration="82.00" routeLength="711.84" waitingTime="6.00" waitingCount="2" stopTime="0.00" timeLoss="22.49" rerouteNo="0" devices="tripinfo_randomCar_1717424819981627763" vType="vehicle.dodge.charger_police_2020" speedFactor="0.92" vaporized=""/>
    <tripinfo id="randomCar_1717424819843550747" depart="193.00" departLane="-1433_1" departPos="5.34" departSpeed="0.00" departDelay="75.00" arrival="201.00" arrivalLane="-1606_1" arrivalPos="33.74" arrivalSpeed="12.29" duration="8.00" routeLength="58.23" waitingTime="0.00" waitingCount="0" stopTime="0.00" timeLoss="5.29" rerouteNo="0" devices="tripinfo_randomCar_1717424819843550747" vType="vehicle.dodge.charger_police_2020" speedFactor="1.04" vaporized=""/>
    <tripinfo id="randomCar_1717424819427632803" depart="118.00" departLane="-1598_1" departPos="5.34" departSpeed="0.00" departDelay="0.00" arrival="202.00" arrivalLane="-1638_1" arrivalPos="190.89" arrivalSpeed="4.92" duration="84.00" routeLength="434.04" waitingTime="27.00" waitingCount="3" stopTime="0.00" timeLoss="53.25" rerouteNo="0" devices="tripinfo_randomCar_1717424819427632803" vType="vehicle.dodge.charger_police_2020" speedFactor="1.09" vaporized=""/>
    <tripinfo id="randomCar_1717424819566896733" depart="121.00" departLane="-1477_1" departPos="5.34" departSpeed="0.00" departDelay="3.00" arrival="202.00" arrivalLane="-1417_1" arrivalPos="171.89" arrivalSpeed="13.20" duration="81.00" routeLength="666.03" waitingTime="4.00" waitingCount="3" stopTime="0.00" timeLoss="31.32" rerouteNo="0" devices="tripinfo_randomCar_1717424819566896733" vType="vehicle.dodge.charger_police_2020" speedFactor="1.02" vaporized=""/>
    <tripinfo id="randomCar_1717424820146900297" depart="128.00" departLane="-1538_1" departPos="5.34" departSpeed="0.00" departDelay="10.00" arrival="202.00" arrivalLane="-1433_1" arrivalPos="10.24" arrivalSpeed="10.74" duration="74.00" routeLength="73.13" waitingTime="59.00" waitingCount="1" stopTime="0.00" timeLoss="70.46" rerouteNo="0" devices="tripinfo_randomCar_1717424820146900297" vType="vehicle.dodge.charger_police_2020" speedFactor="1.00" vaporized=""/>
    <tripinfo id="randomCar_1717424819865197501" depart="118.00" departLane="-1542_1" departPos="1.25" departSpeed="0.00" departDelay="0.00" arrival="203.00" arrivalLane="-1537_1" arrivalPos="45.63" arrivalSpeed="4.44" duration="85.00" routeLength="98.71" waitingTime="54.00" waitingCount="2" stopTime="0.00" timeLoss="78.05" rerouteNo="0" devices="tripinfo_randomCar_1717424819865197501" vType="vehicle.dodge.charger_police_2020" speedFactor="1.16" vaporized=""/>
    <tripinfo id="randomCar_1717424820038348327" depart="127.00" departLane="-1476_1" departPos="5.34" departSpeed="0.00" departDelay="9.00" arrival="204.00" arrivalLane="-1658_2" arrivalPos="11.89" arrivalSpeed="12.39" duration="77.00" routeLength="817.59" waitingTime="0.00" waitingCount="0" stopTime="0.00" timeLoss="14.88" rerouteNo="0" devices="tripinfo_randomCar_1717424820038348327" vType="vehicle.dodge.charger_police_2020" speedFactor="0.97" vaporized=""/>
    <tripinfo id="randomCar_1717424820213438876" depart="160.00" departLane="-1539_1" departPos="5.34" departSpeed="0.00" departDelay="42.00" arrival="206.00" arrivalLane="-1596_1" arrivalPos="134.55" arrivalSpeed="15.11" duration="46.00" routeLength="372.02" waitingTime="6.00" waitingCount="1" stopTime="0.00" timeLoss="21.65" rerouteNo="0" devices="tripinfo_randomCar_1717424820213438876" vType="vehicle.dodge.charger_police_2020" speedFactor="1.14" vaporized=""/>
    <tripinfo id="randomCar_1717424819861215054" depart="118.00" departLane="-1648_1" departPos="0.25" departSpeed="0.00" departDelay="0.00" arrival="207.00" arrivalLane="-1455_1" arrivalPos="3.17" arrivalSpeed="6.72" duration="89.00" routeLength="195.66" waitingTime="59.00" waitingCount="1" stopTime="0.00" timeLoss="76.56" rerouteNo="0" devices="tripinfo_randomCar_1717424819861215054" vType="vehicle.dodge.charger_police_2020" speedFactor="0.95" vaporized=""/>
    <tripinfo id="randomCar_1717424819845916275" depart="118.00" departLane="-1539_1" departPos="5.34" departSpeed="0.00" departDelay="0.00" arrival="209.00" arrivalLane="-1529_2" arrivalPos="78.97" arrivalSpeed="16.28" duration="91.00" routeLength="648.83" waitingTime="38.00" waitingCount="2" stopTime="0.00" timeLoss="63.09" rerouteNo="0" devices="tripinfo_randomCar_1717424819845916275" vType="vehicle.dodge.charger_police_2020" speedFactor="1.23" vaporized=""/>