<?xml version="1.0" encoding="UTF-8"?>

<!-- generated on 2024-06-03 19:57:49 by Eclipse SUMO GUI Version 1.12.0
<configuration xmlns:xsi="http://www.w3.org/2001/XMLSchema-instance" xsi:noNamespaceSchemaLocation="http://sumo.dlr.de/xsd/sumoConfiguration.xsd">

    <input>
        <net-file value="Adapters/co_simulation/sumo_configuration/simple-map/UA.net.xml"/>
        <route-files value="Adapters/co_simulation/sumo_configuration/simple-map/carlavtypes.rou.xml,Adapters/co_simulation/sumo_configuration/simple-map/simple-map.rou.xml"/>
    </input>

    <output>
        <tripinfo-output value="tripinfo.xml"/>
    </output>

    <traci_server>
        <remote-port value="41641"/>
        <num-clients value="1"/>
    </traci_server>

    <gui_only>
        <gui-settings-file value="Adapters/co_simulation/sumo_configuration/simple-map/simple-map.view.xml"/>
        <quit-on-end value="true"/>
    </gui_only>

</configuration>
-->

<tripinfos xmlns:xsi="http://www.w3.org/2001/XMLSchema-instance" xsi:noNamespaceSchemaLocation="http://sumo.dlr.de/xsd/tripinfo_file.xsd">
    <tripinfo id="0" depart="3.00" departLane="-1466_1" departPos="5.34" departSpeed="0.00" departDelay="0.00" arrival="10.00" arrivalLane="-1466_1" arrivalPos="42.53" arrivalSpeed="11.36" duration="7.00" routeLength="37.19" waitingTime="0.00" waitingCount="0" stopTime="0.00" timeLoss="3.47" rerouteNo="0" devices="tripinfo_0" vType="vehicle.dodge.charger_police_2020" speedFactor="1.06" vaporized="traci"/>
    <tripinfo id="randomCar_1717441247993233060" depart="281.00" departLane="-1499_0" departPos="0.20" departSpeed="0.00" departDelay="0.00" arrival="282.00" arrivalLane="-1499_0" arrivalPos="0.20" arrivalSpeed="0.00" duration="1.00" routeLength="0.00" waitingTime="1.00" waitingCount="1" stopTime="0.00" timeLoss="0.00" rerouteNo="0" devices="tripinfo_randomCar_1717441247993233060" vType="vehicle.dodge.charger_police_2020" speedFactor="0.96" vaporized=""/>
    <tripinfo id="randomCar_1717441248092390627" depart="281.00" departLane="-1494_1" departPos="0.20" departSpeed="0.00" departDelay="0.00" arrival="282.00" arrivalLane="-1494_1" arrivalPos="0.20" arrivalSpeed="0.00" duration="1.00" routeLength="0.00" waitingTime="1.00" waitingCount="1" stopTime="0.00" timeLoss="0.00" rerouteNo="0" devices="tripinfo_randomCar_1717441248092390627" vType="vehicle.dodge.charger_police_2020" speedFactor="1.05" vaporized=""/>
    <tripinfo id="randomCar_1717441248317889687" depart="281.00" departLane="-1492_1" departPos="3.46" departSpeed="0.00" departDelay="0.00" arrival="282.00" arrivalLane="-1492_1" arrivalPos="3.46" arrivalSpeed="0.00" duration="1.00" routeLength="0.00" waitingTime="1.00" waitingCount="1" stopTime="0.00" timeLoss="0.00" rerouteNo="0" devices="tripinfo_randomCar_1717441248317889687" vType="vehicle.dodge.charger_police_2020" speedFactor="1.04" vaporized=""/>
    <tripinfo id="randomCar_1717441248573829253" depart="281.00" departLane="-1647_1" departPos="0.21" departSpeed="0.00" departDelay="0.00" arrival="282.00" arrivalLane="-1647_1" arrivalPos="0.21" arrivalSpeed="0.00" duration="1.00" routeLength="0.00" waitingTime="1.00" waitingCount="1" stopTime="0.00" timeLoss="0.00" rerouteNo="0" devices="tripinfo_randomCar_1717441248573829253" vType="vehicle.dodge.charger_police_2020" speedFactor="0.98" vaporized=""/>
    <tripinfo id="randomCar_1717441248188146415" depart="281.00" departLane="-1587_1" departPos="5.34" departSpeed="0.00" departDelay="0.00" arrival="283.00" arrivalLane="-1587_1" arrivalPos="10.24" arrivalSpeed="4.82" duration="2.00" routeLength="4.90" waitingTime="0.00" waitingCount="0" stopTime="0.00" timeLoss="1.63" rerouteNo="0" devices="tripinfo_randomCar_1717441248188146415" vType="vehicle.dodge.charger_police_2020" speedFactor="0.87" vaporized=""/>
    <tripinfo id="randomCar_1717441248686342735" depart="281.00" departLane="-1589_1" departPos="5.34" departSpeed="0.00" departDelay="0.00" arrival="287.00" arrivalLane="-1589_1" arrivalPos="47.64" arrivalSpeed="12.12" duration="6.00" routeLength="42.30" waitingTime="0.00" waitingCount="0" stopTime="0.00" timeLoss="2.88" rerouteNo="0" devices="tripinfo_randomCar_1717441248686342735" vType="vehicle.dodge.charger_police_2020" speedFactor="1.03" vaporized=""/>
    <tripinfo id="randomCar_1717441247960859166" depart="281.00" departLane="-1471_1" departPos="5.34" departSpeed="0.00" departDelay="0.00" arrival="289.00" arrivalLane="-1471_1" arrivalPos="73.81" arrivalSpeed="12.59" duration="8.00" routeLength="68.47" waitingTime="0.00" waitingCount="0" stopTime="0.00" timeLoss="2.72" rerouteNo="0" devices="tripinfo_randomCar_1717441247960859166" vType="vehicle.dodge.charger_police_2020" speedFactor="0.96" vaporized=""/>
    <tripinfo id="randomCar_1717441248054496169" depart="281.00" departLane="-1615_2" departPos="5.34" departSpeed="0.00" departDelay="0.00" arrival="289.00" arrivalLane="-1511_2" arrivalPos="0.20" arrivalSpeed="8.02" duration="8.00" routeLength="53.73" waitingTime="0.00" waitingCount="0" stopTime="0.00" timeLoss="3.42" rerouteNo="0" devices="tripinfo_randomCar_1717441248054496169" vType="vehicle.dodge.charger_police_2020" speedFactor="1.06" vaporized=""/>
    <tripinfo id="randomCar_1717441248496054050" depart="281.00" departLane="-1644_1" departPos="5.34" departSpeed="0.00" departDelay="0.00" arrival="289.00" arrivalLane="-1644_1" arrivalPos="59.90" arrivalSpeed="15.10" duration="8.00" routeLength="54.56" waitingTime="0.00" waitingCount="0" stopTime="0.00" timeLoss="3.48" rerouteNo="0" devices="tripinfo_randomCar_1717441248496054050" vType="vehicle.dodge.charger_police_2020" speedFactor="1.09" vaporized=""/>
    <tripinfo id="randomCar_1717441249115661366" depart="282.00" departLane="-1564_1" departPos="5.34" departSpeed="0.00" departDelay="0.00" arrival="289.00" arrivalLane="-1564_1" arrivalPos="56.13" arrivalSpeed="13.47" duration="7.00" routeLength="50.79" waitingTime="0.00" waitingCount="0" stopTime="0.00" timeLoss="2.85" rerouteNo="0" devices="tripinfo_randomCar_1717441249115661366" vType="vehicle.dodge.charger_police_2020" speedFactor="0.99" vaporized=""/>
    <tripinfo id="randomCar_1717441248351058075" depart="281.00" departLane="-1633_1" departPos="5.34" departSpeed="0.00" departDelay="0.00" arrival="292.00" arrivalLane="-1634_1" arrivalPos="52.76" arrivalSpeed="5.88" duration="11.00" routeLength="71.21" waitingTime="0.00" waitingCount="0" stopTime="0.00" timeLoss="5.30" rerouteNo="0" devices="tripinfo_randomCar_1717441248351058075" vType="vehicle.dodge.charger_police_2020" speedFactor="0.91" vaporized=""/>
    <tripinfo id="randomCar_1717441248776021463" depart="284.00" departLane="-1456_1" departPos="5.34" departSpeed="0.00" departDelay="3.00" arrival="293.00" arrivalLane="-1626_1" arrivalPos="35.31" arrivalSpeed="14.90" duration="9.00" routeLength="71.42" waitingTime="0.00" waitingCount="0" stopTime="0.00" timeLoss="3.79" rerouteNo="0" devices="tripinfo_randomCar_1717441248776021463" vType="vehicle.dodge.charger_police_2020" speedFactor="1.08" vaporized=""/>
    <tripinfo id="randomCar_1717441248180052967" depart="281.00" departLane="-1599_1" departPos="5.34" departSpeed="0.00" departDelay="0.00" arrival="295.00" arrivalLane="-1637_1" arrivalPos="51.65" arrivalSpeed="13.03" duration="14.00" routeLength="123.95" waitingTime="0.00" waitingCount="0" stopTime="0.00" timeLoss="3.88" rerouteNo="0" devices="tripinfo_randomCar_1717441248180052967" vType="vehicle.dodge.charger_police_2020" speedFactor="1.00" vaporized=""/>
    <tripinfo id="randomCar_1717441248348196794" depart="284.00" departLane="-1615_2" departPos="5.34" departSpeed="0.00" departDelay="3.00" arrival="296.00" arrivalLane="-1512_2" arrivalPos="0.20" arrivalSpeed="10.60" duration="12.00" routeLength="79.56" waitingTime="0.00" waitingCount="0" stopTime="0.00" timeLoss="4.85" rerouteNo="0" devices="tripinfo_randomCar_1717441248348196794" vType="vehicle.dodge.charger_police_2020" speedFactor="1.17" vaporized=""/>
    <tripinfo id="randomCar_1717441248086078567" depart="281.00" departLane="-1595_1" departPos="5.34" departSpeed="0.00" departDelay="0.00" arrival="297.00" arrivalLane="-1596_1" arrivalPos="134.55" arrivalSpeed="13.23" duration="16.00" routeLength="164.76" waitingTime="0.00" waitingCount="0" stopTime="0.00" timeLoss="3.63" rerouteNo="0" devices="tripinfo_randomCar_1717441248086078567" vType="vehicle.dodge.charger_police_2020" speedFactor="1.01" vaporized=""/>
    <tripinfo id="randomCar_1717441248308530447" depart="281.00" departLane="-1600_1" departPos="5.34" departSpeed="0.00" departDelay="0.00" arrival="298.00" arrivalLane="-1637_1" arrivalPos="51.65" arrivalSpeed="13.02" duration="17.00" routeLength="167.43" waitingTime="0.00" waitingCount="0" stopTime="0.00" timeLoss="4.36" rerouteNo="0" devices="tripinfo_randomCar_1717441248308530447" vType="vehicle.dodge.charger_police_2020" speedFactor="0.98" vaporized=""/>
    <tripinfo id="randomCar_1717441248944444095" depart="297.00" departLane="-1594_1" departPos="0.20" departSpeed="0.00" departDelay="15.00" arrival="298.00" arrivalLane="-1594_1" arrivalPos="0.20" arrivalSpeed="1.77" duration="1.00" routeLength="0.00" waitingTime="0.00" waitingCount="0" stopTime="0.00" timeLoss="0.87" rerouteNo="0" devices="tripinfo_randomCar_1717441248944444095" vType="vehicle.dodge.charger_police_2020" speedFactor="1.01" vaporized=""/>
    <tripinfo id="randomCar_1717441248571437669" depart="284.00" departLane="-1409_1" departPos="5.34" departSpeed="0.00" departDelay="3.00" arrival="300.00" arrivalLane="-1545_1" arrivalPos="71.79" arrivalSpeed="14.53" duration="16.00" routeLength="135.98" waitingTime="0.00" waitingCount="0" stopTime="0.00" timeLoss="5.77" rerouteNo="0" devices="tripinfo_randomCar_1717441248571437669" vType="vehicle.dodge.charger_police_2020" speedFactor="1.14" vaporized=""/>
    <tripinfo id="randomCar_1717441248493458866" depart="287.00" departLane="-1579_1" departPos="5.34" departSpeed="0.00" departDelay="6.00" arrival="301.00" arrivalLane="-1517_1" arrivalPos="11.76" arrivalSpeed="10.52" duration="14.00" routeLength="105.51" waitingTime="0.00" waitingCount="0" stopTime="0.00" timeLoss="5.03" rerouteNo="0" devices="tripinfo_randomCar_1717441248493458866" vType="vehicle.dodge.charger_police_2020" speedFactor="0.98" vaporized=""/>
    <tripinfo id="randomCar_1717441249108095557" depart="288.00" departLane="-1523_1" departPos="5.34" departSpeed="0.00" departDelay="6.00" arrival="301.00" arrivalLane="-1600_1" arrivalPos="31.26" arrivalSpeed="11.94" duration="13.00" routeLength="103.47" waitingTime="0.00" waitingCount="0" stopTime="0.00" timeLoss="3.64" rerouteNo="0" devices="tripinfo_randomCar_1717441249108095557" vType="vehicle.dodge.charger_police_2020" speedFactor="0.87" vaporized=""/>
    <tripinfo id="randomCar_1717441248350328380" depart="287.00" departLane="-1634_1" departPos="5.34" departSpeed="0.00" departDelay="6.00" arrival="302.00" arrivalLane="-1466_1" arrivalPos="53.22" arrivalSpeed="13.29" duration="15.00" routeLength="105.53" waitingTime="0.00" waitingCount="0" stopTime="0.00" timeLoss="6.61" rerouteNo="0" devices="tripinfo_randomCar_1717441248350328380" vType="vehicle.dodge.charger_police_2020" speedFactor="1.03" vaporized=""/>
    <tripinfo id="randomCar_1717441249043480824" depart="282.00" departLane="-1551_1" departPos="5.34" departSpeed="0.00" departDelay="0.00" arrival="302.00" arrivalLane="-1415_0" arrivalPos="87.23" arrivalSpeed="17.83" duration="20.00" routeLength="174.07" waitingTime="0.00" waitingCount="0" stopTime="0.00" timeLoss="13.06" rerouteNo="0" devices="tripinfo_randomCar_1717441249043480824" vType="vehicle.dodge.charger_police_2020" speedFactor="1.05" vaporized=""/>
    <tripinfo id="randomCar_1717441248495030156" depart="281.00" departLane="-1512_1" departPos="0.20" departSpeed="0.00" departDelay="0.00" arrival="303.00" arrivalLane="-1569_1" arrivalPos="153.12" arrivalSpeed="10.50" duration="22.00" routeLength="213.88" waitingTime="0.00" waitingCount="0" stopTime="0.00" timeLoss="4.68" rerouteNo="0" devices="tripinfo_randomCar_1717441248495030156" vType="vehicle.dodge.charger_police_2020" speedFactor="0.94" vaporized=""/>
    <tripinfo id="randomCar_1717441248166607453" depart="281.00" departLane="-1513_2" departPos="5.34" departSpeed="0.00" departDelay="0.00" arrival="304.00" arrivalLane="-1510_2" arrivalPos="0.94" arrivalSpeed="5.03" duration="23.00" routeLength="45.40" waitingTime="10.00" waitingCount="1" stopTime="0.00" timeLoss="19.67" rerouteNo="0" devices="tripinfo_randomCar_1717441248166607453" vType="vehicle.dodge.charger_police_2020" speedFactor="1.08" vaporized=""/>
    <tripinfo id="randomCar_1717441248620227357" depart="281.00" departLane="-1522_1" departPos="5.34" departSpeed="0.00" departDelay="0.00" arrival="307.00" arrivalLane="-1523_1" arrivalPos="66.85" arrivalSpeed="11.47" duration="26.00" routeLength="269.07" waitingTime="0.00" waitingCount="0" stopTime="0.00" timeLoss="3.52" rerouteNo="0" devices="tripinfo_randomCar_1717441248620227357" vType="vehicle.dodge.charger_police_2020" speedFactor="0.89" vaporized=""/>
    <tripinfo id="randomCar_1717441249136217863" depart="282.00" departLane="-1510_2" departPos="0.94" departSpeed="0.00" departDelay="0.00" arrival="307.00" arrivalLane="-1512_2" arrivalPos="0.20" arrivalSpeed="8.46" duration="25.00" routeLength="37.30" waitingTime="18.00" waitingCount="1" stopTime="0.00" timeLoss="21.31" rerouteNo="0" devices="tripinfo_randomCar_1717441249136217863" vType="vehicle.dodge.charger_police_2020" speedFactor="0.99" vaporized=""/>
    <tripinfo id="randomCar_1717441248383785267" depart="281.00" departLane="-1597_1" departPos="5.34" departSpeed="0.00" departDelay="0.00" arrival="308.00" arrivalLane="-1533_1" arrivalPos="68.87" arrivalSpeed="15.12" duration="27.00" routeLength="277.44" waitingTime="0.00" waitingCount="0" stopTime="0.00" timeLoss="9.11" rerouteNo="0" devices="tripinfo_randomCar_1717441248383785267" vType="vehicle.dodge.charger_police_2020" speedFactor="1.14" vaporized=""/>
    <tripinfo id="randomCar_1717441248560883536" depart="281.00" departLane="-1482_1" departPos="0.10" departSpeed="0.00" departDelay="0.00" arrival="310.00" arrivalLane="-1554_1" arrivalPos="152.52" arrivalSpeed="11.73" duration="29.00" routeLength="283.92" waitingTime="0.00" waitingCount="0" stopTime="0.00" timeLoss="4.97" rerouteNo="0" devices="tripinfo_randomCar_1717441248560883536" vType="vehicle.dodge.charger_police_2020" speedFactor="0.92" vaporized=""/>
    <tripinfo id="randomCar_1717441248242800867" depart="284.00" departLane="-1615_1" departPos="5.34" departSpeed="0.00" departDelay="3.00" arrival="311.00" arrivalLane="-1583_2" arrivalPos="0.20" arrivalSpeed="5.73" duration="27.00" routeLength="144.01" waitingTime="0.00" waitingCount="0" stopTime="0.00" timeLoss="12.19" rerouteNo="0" devices="tripinfo_randomCar_1717441248242800867" vType="vehicle.dodge.charger_police_2020" speedFactor="1.04" vaporized=""/>
    <tripinfo id="randomCar_1717441247935181630" depart="281.00" departLane="-1409_1" departPos="5.34" departSpeed="0.00" departDelay="0.00" arrival="312.00" arrivalLane="-1549_1" arrivalPos="74.52" arrivalSpeed="12.84" duration="31.00" routeLength="305.41" waitingTime="0.00" waitingCount="0" stopTime="0.00" timeLoss="6.70" rerouteNo="0" devices="tripinfo_randomCar_1717441247935181630" vType="vehicle.dodge.charger_police_2020" speedFactor="0.96" vaporized=""/>
    <tripinfo id="randomCar_1717441248602720169" depart="287.00" departLane="-1394_1" departPos="5.34" departSpeed="0.00" departDelay="6.00" arrival="313.00" arrivalLane="-1394_1" arrivalPos="288.77" arrivalSpeed="12.53" duration="26.00" routeLength="283.43" waitingTime="0.00" waitingCount="0" stopTime="0.00" timeLoss="4.22" rerouteNo="0" devices="tripinfo_randomCar_1717441248602720169" vType="vehicle.dodge.charger_police_2020" speedFactor="0.97" vaporized=""/>
    <tripinfo id="randomCar_1717441249022341619" depart="282.00" departLane="-1529_1" departPos="5.34" departSpeed="0.00" departDelay="0.00" arrival="313.00" arrivalLane="-1511_1" arrivalPos="0.20" arrivalSpeed="5.61" duration="31.00" routeLength="237.41" waitingTime="0.00" waitingCount="0" stopTime="0.00" timeLoss="6.30" rerouteNo="0" devices="tripinfo_randomCar_1717441249022341619" vType="vehicle.dodge.charger_police_2020" speedFactor="0.96" vaporized=""/>
    <tripinfo id="randomCar_1717441248513398839" depart="283.00" departLane="-1594_1" departPos="0.20" departSpeed="0.00" departDelay="2.00" arrival="314.00" arrivalLane="-1597_1" arrivalPos="29.36" arrivalSpeed="14.51" duration="31.00" routeLength="264.39" waitingTime="9.00" waitingCount="1" stopTime="0.00" timeLoss="12.81" rerouteNo="0" devices="tripinfo_randomCar_1717441248513398839" vType="vehicle.dodge.charger_police_2020" speedFactor="1.05" vaporized=""/>
    <tripinfo id="randomCar_1717441248995638334" depart="282.00" departLane="-1626_2" departPos="5.34" departSpeed="0.00" departDelay="0.00" arrival="314.00" arrivalLane="-1413_1" arrivalPos="74.52" arrivalSpeed="5.12" duration="32.00" routeLength="149.38" waitingTime="7.00" waitingCount="1" stopTime="0.00" timeLoss="19.76" rerouteNo="0" devices="tripinfo_randomCar_1717441248995638334" vType="vehicle.dodge.charger_police_2020" speedFactor="0.96" vaporized=""/>
    <tripinfo id="randomCar_1717441248013980327" depart="281.00" departLane="-1510_1" departPos="0.94" departSpeed="0.00" departDelay="0.00" arrival="316.00" arrivalLane="-1513_2" arrivalPos="41.86" arrivalSpeed="8.06" duration="35.00" routeLength="185.00" waitingTime="2.00" waitingCount="2" stopTime="0.00" timeLoss="16.73" rerouteNo="0" devices="tripinfo_randomCar_1717441248013980327" vType="vehicle.dodge.charger_police_2020" speedFactor="0.98" vaporized=""/>
    <tripinfo id="randomCar_1717441247905332121" depart="284.00" departLane="-1394_1" departPos="5.34" departSpeed="0.00" departDelay="3.00" arrival="318.00" arrivalLane="-1589_1" arrivalPos="47.64" arrivalSpeed="13.50" duration="34.00" routeLength="391.67" waitingTime="0.00" waitingCount="0" stopTime="0.00" timeLoss="4.30" rerouteNo="0" devices="tripinfo_randomCar_1717441247905332121" vType="vehicle.dodge.charger_police_2020" speedFactor="0.98" vaporized=""/>
    <tripinfo id="randomCar_1717441248137177141" depart="281.00" departLane="-1634_1" departPos="5.34" departSpeed="0.00" departDelay="0.00" arrival="318.00" arrivalLane="-1633_1" arrivalPos="11.38" arrivalSpeed="8.48" duration="37.00" routeLength="269.81" waitingTime="0.00" waitingCount="0" stopTime="0.00" timeLoss="12.15" rerouteNo="0" devices="tripinfo_randomCar_1717441248137177141" vType="vehicle.dodge.charger_police_2020" speedFactor="0.94" vaporized=""/>
    <tripinfo id="randomCar_1717441247874277519" depart="281.00" departLane="-1408_1" departPos="0.20" departSpeed="0.00" departDelay="0.00" arrival="322.00" arrivalLane="-1486_1" arrivalPos="44.61" arrivalSpeed="12.97" duration="41.00" routeLength="443.95" waitingTime="0.00" waitingCount="0" stopTime="0.00" timeLoss="6.05" rerouteNo="0" devices="tripinfo_randomCar_1717441247874277519" vType="vehicle.dodge.charger_police_2020" speedFactor="0.96" vaporized=""/>
    <tripinfo id="randomCar_1717441248209309680" depart="281.00" departLane="-1417_1" departPos="5.34" departSpeed="0.00" departDelay="0.00" arrival="325.00" arrivalLane="-1555_1" arrivalPos="86.49" arrivalSpeed="13.03" duration="44.00" routeLength="449.86" waitingTime="0.00" waitingCount="0" stopTime="0.00" timeLoss="9.06" rerouteNo="0" devices="tripinfo_randomCar_1717441248209309680" vType="vehicle.dodge.charger_police_2020" speedFactor="0.97" vaporized=""/>
    <tripinfo id="randomCar_1717441247899166860" depart="281.00" departLane="-1394_1" departPos="5.34" departSpeed="0.00" departDelay="0.00" arrival="328.00" arrivalLane="-1507_1" arrivalPos="287.80" arrivalSpeed="15.18" duration="47.00" routeLength="576.13" waitingTime="0.00" waitingCount="0" stopTime="0.00" timeLoss="9.08" rerouteNo="0" devices="tripinfo_randomCar_1717441247899166860" vType="vehicle.dodge.charger_police_2020" speedFactor="1.13" vaporized=""/>
    <tripinfo id="randomCar_1717441248487742203" depart="281.00" departLane="-1596_1" departPos="5.34" departSpeed="0.00" departDelay="0.00" arrival="332.00" arrivalLane="-1432_1" arrivalPos="132.51" arrivalSpeed="11.93" duration="51.00" routeLength="553.70" waitingTime="0.00" waitingCount="0" stopTime="0.00" timeLoss="9.99" rerouteNo="0" devices="tripinfo_randomCar_1717441248487742203" vType="vehicle.dodge.charger_police_2020" speedFactor="1.11" vaporized=""/>
    <tripinfo id="randomCar_1717441248125901013" depart="281.00" departLane="-1593_2" departPos="5.34" departSpeed="0.00" departDelay="0.00" arrival="333.00" arrivalLane="-1612_2" arrivalPos="219.69" arrivalSpeed="12.00" duration="52.00" routeLength="461.54" waitingTime="5.00" waitingCount="1" stopTime="0.00" timeLoss="15.21" rerouteNo="0" devices="tripinfo_randomCar_1717441248125901013" vType="vehicle.dodge.charger_police_2020" speedFactor="0.94" vaporized=""/>
    <tripinfo id="randomCar_1717441248414222272" depart="281.00" departLane="-1651_1" departPos="5.34" departSpeed="0.00" departDelay="0.00" arrival="333.00" arrivalLane="-1554_1" arrivalPos="152.52" arrivalSpeed="14.82" duration="52.00" routeLength="663.66" waitingTime="0.00" waitingCount="0" stopTime="0.00" timeLoss="8.72" rerouteNo="0" devices="tripinfo_randomCar_1717441248414222272" vType="vehicle.dodge.charger_police_2020" speedFactor="1.15" vaporized=""/>
    <tripinfo id="randomCar_1717441248276525451" depart="281.00" departLane="-1521_1" departPos="0.20" departSpeed="0.00" departDelay="0.00" arrival="334.00" arrivalLane="-1593_1" arrivalPos="188.17" arrivalSpeed="13.99" duration="53.00" routeLength="274.03" waitingTime="25.00" waitingCount="1" stopTime="0.00" timeLoss="30.25" rerouteNo="0" devices="tripinfo_randomCar_1717441248276525451" vType="vehicle.dodge.charger_police_2020" speedFactor="1.03" vaporized=""/>
    <tripinfo id="randomCar_1717441248364221891" depart="281.00" departLane="-1531_1" departPos="5.34" departSpeed="0.00" departDelay="0.00" arrival="335.00" arrivalLane="-1515_1" arrivalPos="88.22" arrivalSpeed="12.23" duration="54.00" routeLength="515.91" waitingTime="0.00" waitingCount="0" stopTime="0.00" timeLoss="11.67" rerouteNo="0" devices="tripinfo_randomCar_1717441248364221891" vType="vehicle.dodge.charger_police_2020" speedFactor="0.96" vaporized=""/>
    <tripinfo id="randomCar_1717441247900832749" depart="281.00" departLane="-1554_1" departPos="5.34" departSpeed="0.00" departDelay="0.00" arrival="336.00" arrivalLane="-1482_1" arrivalPos="0.10" arrivalSpeed="2.57" duration="55.00" routeLength="557.26" waitingTime="0.00" waitingCount="0" stopTime="0.00" timeLoss="10.77" rerouteNo="0" devices="tripinfo_randomCar_1717441247900832749" vType="vehicle.dodge.charger_police_2020" speedFactor="0.97" vaporized=""/>
    <tripinfo id="randomCar_1717441248666515262" depart="290.00" departLane="-1394_1" departPos="5.34" departSpeed="0.00" departDelay="9.00" arrival="337.00" arrivalLane="-1434_1" arrivalPos="0.20" arrivalSpeed="4.82" duration="47.00" routeLength="347.24" waitingTime="5.00" waitingCount="1" stopTime="0.00" timeLoss="15.29" rerouteNo="0" devices="tripinfo_randomCar_1717441248666515262" vType="vehicle.dodge.charger_police_2020" speedFactor="0.85" vaporized=""/>
    <tripinfo id="randomCar_1717441247897969168" depart="281.00" departLane="-1594_1" departPos="0.20" departSpeed="0.00" departDelay="0.00" arrival="339.00" arrivalLane="-1439_1" arrivalPos="0.20" arrivalSpeed="14.11" duration="58.00" routeLength="673.53" waitingTime="0.00" waitingCount="0" stopTime="0.00" timeLoss="10.24" rerouteNo="0" devices="tripinfo_randomCar_1717441247897969168" vType="vehicle.dodge.charger_police_2020" speedFactor="1.08" vaporized=""/>
    <tripinfo id="randomCar_1717441248291365057" depart="306.00" departLane="-1545_1" departPos="5.34" departSpeed="0.00" departDelay="25.00" arrival="339.00" arrivalLane="-1547_1" arrivalPos="68.47" arrivalSpeed="12.95" duration="33.00" routeLength="317.09" waitingTime="0.00" waitingCount="0" stopTime="0.00" timeLoss="8.33" rerouteNo="0" devices="tripinfo_randomCar_1717441248291365057" vType="vehicle.dodge.charger_police_2020" speedFactor="0.98" vaporized=""/>
    <tripinfo id="randomCar_1717441249067259668" depart="299.00" departLane="-1548_1" departPos="5.34" departSpeed="0.00" departDelay="17.00" arrival="339.00" arrivalLane="-1544_1" arrivalPos="20.79" arrivalSpeed="9.52" duration="40.00" routeLength="94.49" waitingTime="11.00" waitingCount="2" stopTime="0.00" timeLoss="32.28" rerouteNo="0" devices="tripinfo_randomCar_1717441249067259668" vType="vehicle.dodge.charger_police_2020" speedFactor="0.97" vaporized=""/>
    <tripinfo id="randomCar_1717441249044513739" depart="286.00" departLane="-1434_1" departPos="0.20" departSpeed="0.00" departDelay="4.00" arrival="343.00" arrivalLane="-1394_1" arrivalPos="288.77" arrivalSpeed="12.90" duration="57.00" routeLength="629.29" waitingTime="0.00" waitingCount="0" stopTime="0.00" timeLoss="8.46" rerouteNo="0" devices="tripinfo_randomCar_1717441249044513739" vType="vehicle.dodge.charger_police_2020" speedFactor="0.98" vaporized=""/>
    <tripinfo id="randomCar_1717441248228248059" depart="281.00" departLane="-1505_1" departPos="0.20" departSpeed="0.00" departDelay="0.00" arrival="344.00" arrivalLane="-1599_1" arrivalPos="63.53" arrivalSpeed="16.17" duration="63.00" routeLength="683.15" waitingTime="6.00" waitingCount="1" stopTime="0.00" timeLoss="21.09" rerouteNo="0" devices="tripinfo_randomCar_1717441248228248059" vType="vehicle.dodge.charger_police_2020" speedFactor="1.22" vaporized=""/>
    <tripinfo id="randomCar_1717441248392638210" depart="281.00" departLane="-1643_1" departPos="5.34" departSpeed="0.00" departDelay="0.00" arrival="344.00" arrivalLane="-1486_1" arrivalPos="44.61" arrivalSpeed="13.80" duration="63.00" routeLength="482.63" waitingTime="12.00" waitingCount="2" stopTime="0.00" timeLoss="27.90" rerouteNo="0" devices="tripinfo_randomCar_1717441248392638210" vType="vehicle.dodge.charger_police_2020" speedFactor="1.07" vaporized=""/>
    <tripinfo id="randomCar_1717441248193665680" depart="281.00" departLane="-1638_1" departPos="5.34" departSpeed="0.00" departDelay="0.00" arrival="345.00" arrivalLane="-1472_1" arrivalPos="59.90" arrivalSpeed="10.12" duration="64.00" routeLength="471.19" waitingTime="10.00" waitingCount="1" stopTime="0.00" timeLoss="19.63" rerouteNo="0" devices="tripinfo_randomCar_1717441248193665680" vType="vehicle.dodge.charger_police_2020" speedFactor="0.80" vaporized=""/>
    <tripinfo id="randomCar_1717441248557620357" depart="284.00" departLane="-1512_1" departPos="0.20" departSpeed="0.00" departDelay="3.00" arrival="345.00" arrivalLane="-1523_2" arrivalPos="66.85" arrivalSpeed="13.11" duration="61.00" routeLength="623.70" waitingTime="0.00" waitingCount="0" stopTime="0.00" timeLoss="9.41" rerouteNo="0" devices="tripinfo_randomCar_1717441248557620357" vType="vehicle.dodge.charger_police_2020" speedFactor="0.96" vaporized=""/>
    <tripinfo id="randomCar_1717441247975662272" depart="281.00" departLane="-1439_1" departPos="0.20" departSpeed="0.00" departDelay="0.00" arrival="346.00" arrivalLane="-1630_1" arrivalPos="19.33" arrivalSpeed="12.55" duration="65.00" routeLength="430.42" waitingTime="21.00" waitingCount="1" stopTime="0.00" timeLoss="31.31" rerouteNo="0" devices="tripinfo_randomCar_1717441247975662272" vType="vehicle.dodge.charger_police_2020" speedFactor="0.98" vaporized=""/>
    <tripinfo id="randomCar_1717441248230416346" depart="281.00" departLane="-1509_1" departPos="5.34" departSpeed="0.00" departDelay="0.00" arrival="348.00" arrivalLane="-1504_2" arrivalPos="35.19" arrivalSpeed="11.80" duration="67.00" routeLength="632.48" waitingTime="0.00" waitingCount="0" stopTime="0.00" timeLoss="11.90" rerouteNo="0" devices="tripinfo_randomCar_1717441248230416346" vType="vehicle.dodge.charger_police_2020" speedFactor="0.87" vaporized=""/>
    <tripinfo id="randomCar_1717441248654357139" depart="286.00" departLane="-1439_1" departPos="0.20" departSpeed="0.00" departDelay="5.00" arrival="349.00" arrivalLane="-1391_1" arrivalPos="183.09" arrivalSpeed="14.08" duration="63.00" routeLength="433.97" waitingTime="20.00" waitingCount="1" stopTime="0.00" timeLoss="30.85" rerouteNo="0" devices="tripinfo_randomCar_1717441248654357139" vType="vehicle.dodge.charger_police_2020" speedFactor="1.05" vaporized=""/>
    <tripinfo id="randomCar_1717441248780064437" depart="313.00" departLane="-1439_1" departPos="0.20" departSpeed="0.00" departDelay="32.00" arrival="350.00" arrivalLane="-1598_1" arrivalPos="99.49" arrivalSpeed="13.32" duration="37.00" routeLength="391.67" waitingTime="1.00" waitingCount="1" stopTime="0.00" timeLoss="5.28" rerouteNo="0" devices="tripinfo_randomCar_1717441248780064437" vType="vehicle.dodge.charger_police_2020" speedFactor="0.96" vaporized=""/>
    <tripinfo id="randomCar_1717441247852846856" depart="281.00" departLane="-1513_1" departPos="5.34" departSpeed="0.00" departDelay="0.00" arrival="351.00" arrivalLane="-1524_1" arrivalPos="5.93" arrivalSpeed="14.14" duration="70.00" routeLength="93.51" waitingTime="54.00" waitingCount="1" stopTime="0.00" timeLoss="62.88" rerouteNo="0" devices="tripinfo_randomCar_1717441247852846856" vType="vehicle.dodge.charger_police_2020" speedFactor="1.08" vaporized=""/>
    <tripinfo id="randomCar_1717441247923336206" depart="281.00" departLane="-1486_1" departPos="5.34" departSpeed="0.00" departDelay="0.00" arrival="352.00" arrivalLane="-1533_1" arrivalPos="68.87" arrivalSpeed="13.81" duration="71.00" routeLength="613.32" waitingTime="9.00" waitingCount="2" stopTime="0.00" timeLoss="28.66" rerouteNo="0" devices="tripinfo_randomCar_1717441247923336206" vType="vehicle.dodge.charger_police_2020" speedFactor="1.09" vaporized=""/>