<?xml version="1.0" encoding="UTF-8"?>

<!-- generated on 2024-05-17 23:09:21 by Eclipse SUMO GUI Version 1.12.0
<configuration xmlns:xsi="http://www.w3.org/2001/XMLSchema-instance" xsi:noNamespaceSchemaLocation="http://sumo.dlr.de/xsd/sumoConfiguration.xsd">

    <input>
        <net-file value="Adapters/co_simulation/sumo_configuration/simple-map/UA.net.xml"/>
        <route-files value="Adapters/co_simulation/sumo_configuration/simple-map/carlavtypes.rou.xml,Adapters/co_simulation/sumo_configuration/simple-map/simple-map.rou.xml"/>
    </input>

    <output>
        <tripinfo-output value="tripinfo.xml"/>
    </output>

    <traci_server>
        <remote-port value="59621"/>
        <num-clients value="1"/>
    </traci_server>

    <gui_only>
        <gui-settings-file value="Adapters/co_simulation/sumo_configuration/simple-map/simple-map.view.xml"/>
        <quit-on-end value="true"/>
    </gui_only>

</configuration>
-->

<tripinfos xmlns:xsi="http://www.w3.org/2001/XMLSchema-instance" xsi:noNamespaceSchemaLocation="http://sumo.dlr.de/xsd/tripinfo_file.xsd">
    <tripinfo id="0" depart="3.00" departLane="-1466_1" departPos="5.34" departSpeed="0.00" departDelay="0.00" arrival="12.00" arrivalLane="-1465_1" arrivalPos="11.38" arrivalSpeed="13.75" duration="9.00" routeLength="73.18" waitingTime="0.00" waitingCount="0" stopTime="0.00" timeLoss="3.49" rerouteNo="0" devices="tripinfo_0" vType="vehicle.dodge.charger_police_2020" speedFactor="1.06" vaporized=""/>
    <tripinfo id="randomCar_1715983771901024859" depart="18.00" departLane="-1496_1" departPos="1.31" departSpeed="0.00" departDelay="3.00" arrival="28.00" arrivalLane="-1491_1" arrivalPos="1.66" arrivalSpeed="7.56" duration="10.00" routeLength="25.82" waitingTime="0.00" waitingCount="0" stopTime="0.00" timeLoss="7.48" rerouteNo="0" devices="tripinfo_randomCar_1715983771901024859" vType="vehicle.dodge.charger_police_2020" speedFactor="1.08" vaporized=""/>
    <tripinfo id="randomCar_1715983771949298194" depart="17.00" departLane="-1579_1" departPos="5.34" departSpeed="0.00" departDelay="2.00" arrival="28.00" arrivalLane="-1579_1" arrivalPos="89.57" arrivalSpeed="12.27" duration="11.00" routeLength="84.23" waitingTime="0.00" waitingCount="0" stopTime="0.00" timeLoss="3.30" rerouteNo="0" devices="tripinfo_randomCar_1715983771949298194" vType="vehicle.dodge.charger_police_2020" speedFactor="0.89" vaporized=""/>
    <tripinfo id="randomCar_1715983772024533268" depart="27.00" departLane="-1488_0" departPos="0.20" departSpeed="0.00" departDelay="11.00" arrival="29.00" arrivalLane="-1489_0" arrivalPos="0.20" arrivalSpeed="4.55" duration="2.00" routeLength="3.90" waitingTime="0.00" waitingCount="0" stopTime="0.00" timeLoss="1.52" rerouteNo="0" devices="tripinfo_randomCar_1715983772024533268" vType="vehicle.dodge.charger_police_2020" speedFactor="0.96" vaporized=""/>
    <tripinfo id="randomCar_1715983770629359525" depart="13.00" departLane="-1584_1" departPos="5.34" departSpeed="0.00" departDelay="0.00" arrival="42.00" arrivalLane="-1583_1" arrivalPos="0.20" arrivalSpeed="6.00" duration="29.00" routeLength="180.07" waitingTime="0.00" waitingCount="0" stopTime="0.00" timeLoss="11.64" rerouteNo="0" devices="tripinfo_randomCar_1715983770629359525" vType="vehicle.dodge.charger_police_2020" speedFactor="0.99" vaporized=""/>
    <tripinfo id="randomCar_1715983768755130203" depart="10.00" departLane="-1624_2" departPos="5.34" departSpeed="0.00" departDelay="0.00" arrival="48.00" arrivalLane="-1512_2" arrivalPos="0.20" arrivalSpeed="10.07" duration="38.00" routeLength="369.99" waitingTime="0.00" waitingCount="0" stopTime="0.00" timeLoss="10.32" rerouteNo="0" devices="tripinfo_randomCar_1715983768755130203" vType="vehicle.dodge.charger_police_2020" speedFactor="1.08" vaporized=""/>
    <tripinfo id="randomCar_1715983771984829151" depart="15.00" departLane="-1622_2" departPos="5.34" departSpeed="0.00" departDelay="0.00" arrival="52.00" arrivalLane="-1646_1" arrivalPos="118.71" arrivalSpeed="23.67" duration="37.00" routeLength="619.61" waitingTime="0.00" waitingCount="0" stopTime="0.00" timeLoss="7.37" rerouteNo="0" devices="tripinfo_randomCar_1715983771984829151" vType="vehicle.dodge.charger_police_2020" speedFactor="1.08" vaporized=""/>
    <tripinfo id="randomCar_1715983769395298128" depart="11.00" departLane="-1594_1" departPos="0.20" departSpeed="0.00" departDelay="0.00" arrival="55.00" arrivalLane="-1538_1" arrivalPos="52.35" arrivalSpeed="9.47" duration="44.00" routeLength="195.70" waitingTime="5.00" waitingCount="2" stopTime="0.00" timeLoss="27.71" rerouteNo="0" devices="tripinfo_randomCar_1715983769395298128" vType="vehicle.dodge.charger_police_2020" speedFactor="0.90" vaporized=""/>
    <tripinfo id="randomCar_1715983770639648926" depart="13.00" departLane="-1624_2" departPos="5.34" departSpeed="0.00" departDelay="0.00" arrival="59.00" arrivalLane="-1554_1" arrivalPos="152.48" arrivalSpeed="14.34" duration="46.00" routeLength="543.08" waitingTime="0.00" waitingCount="0" stopTime="0.00" timeLoss="8.26" rerouteNo="0" devices="tripinfo_randomCar_1715983770639648926" vType="vehicle.dodge.charger_police_2020" speedFactor="1.07" vaporized=""/>
    <tripinfo id="randomCar_1715983771990796694" depart="30.00" departLane="-1619_1" departPos="5.34" departSpeed="0.00" departDelay="15.00" arrival="59.00" arrivalLane="-1537_1" arrivalPos="45.63" arrivalSpeed="6.80" duration="29.00" routeLength="178.19" waitingTime="0.00" waitingCount="0" stopTime="0.00" timeLoss="15.94" rerouteNo="0" devices="tripinfo_randomCar_1715983771990796694" vType="vehicle.dodge.charger_police_2020" speedFactor="0.93" vaporized=""/>
    <tripinfo id="randomCar_1715983771860760348" depart="16.00" departLane="-1477_1" departPos="5.34" departSpeed="0.00" departDelay="1.00" arrival="63.00" arrivalLane="-1444_1" arrivalPos="63.36" arrivalSpeed="13.85" duration="47.00" routeLength="466.44" waitingTime="0.00" waitingCount="0" stopTime="0.00" timeLoss="12.97" rerouteNo="0" devices="tripinfo_randomCar_1715983771860760348" vType="vehicle.dodge.charger_police_2020" speedFactor="1.06" vaporized=""/>
    <tripinfo id="randomCar_1715983771301341244" depart="28.00" departLane="-1501_0" departPos="0.20" departSpeed="0.00" departDelay="14.00" arrival="64.00" arrivalLane="-1550_1" arrivalPos="19.96" arrivalSpeed="13.72" duration="36.00" routeLength="339.69" waitingTime="0.00" waitingCount="0" stopTime="0.00" timeLoss="8.57" rerouteNo="0" devices="tripinfo_randomCar_1715983771301341244" vType="vehicle.dodge.charger_police_2020" speedFactor="1.00" vaporized=""/>
    <tripinfo id="randomCar_1715983769998765008" depart="12.00" departLane="-1587_1" departPos="5.34" departSpeed="0.00" departDelay="0.00" arrival="67.00" arrivalLane="-1467_1" arrivalPos="104.54" arrivalSpeed="9.11" duration="55.00" routeLength="642.23" waitingTime="0.00" waitingCount="0" stopTime="0.00" timeLoss="19.53" rerouteNo="0" devices="tripinfo_randomCar_1715983769998765008" vType="vehicle.dodge.charger_police_2020" speedFactor="0.88" vaporized=""/>
    <tripinfo id="randomCar_1715983769398159001" depart="12.00" departLane="-1539_1" departPos="5.34" departSpeed="0.00" departDelay="0.00" arrival="72.00" arrivalLane="-1540_1" arrivalPos="66.16" arrivalSpeed="8.32" duration="60.00" routeLength="274.68" waitingTime="21.00" waitingCount="1" stopTime="0.00" timeLoss="41.09" rerouteNo="0" devices="tripinfo_randomCar_1715983769398159001" vType="vehicle.dodge.charger_police_2020" speedFactor="0.93" vaporized=""/>
    <tripinfo id="randomCar_1715983771279394255" depart="14.00" departLane="-1500_0" departPos="0.20" departSpeed="0.00" departDelay="0.00" arrival="73.00" arrivalLane="-1560_1" arrivalPos="211.16" arrivalSpeed="5.89" duration="59.00" routeLength="503.75" waitingTime="6.00" waitingCount="1" stopTime="0.00" timeLoss="18.76" rerouteNo="0" devices="tripinfo_randomCar_1715983771279394255" vType="vehicle.dodge.charger_police_2020" speedFactor="0.96" vaporized=""/>
    <tripinfo id="randomCar_1715983770028268523" depart="12.00" departLane="-1588_1" departPos="0.20" departSpeed="0.00" departDelay="0.00" arrival="74.00" arrivalLane="-1467_1" arrivalPos="104.54" arrivalSpeed="7.51" duration="62.00" routeLength="612.97" waitingTime="2.00" waitingCount="1" stopTime="0.00" timeLoss="27.18" rerouteNo="0" devices="tripinfo_randomCar_1715983770028268523" vType="vehicle.dodge.charger_police_2020" speedFactor="0.89" vaporized=""/>
    <tripinfo id="randomCar_1715983771310477156" depart="14.00" departLane="-1594_1" departPos="0.20" departSpeed="0.00" departDelay="0.00" arrival="77.00" arrivalLane="-1578_1" arrivalPos="0.10" arrivalSpeed="6.84" duration="63.00" routeLength="377.24" waitingTime="7.00" waitingCount="2" stopTime="0.00" timeLoss="38.00" rerouteNo="0" devices="tripinfo_randomCar_1715983771310477156" vType="vehicle.dodge.charger_police_2020" speedFactor="1.09" vaporized=""/>
    <tripinfo id="randomCar_1715983772027859836" depart="16.00" departLane="-1527_1" departPos="5.34" departSpeed="0.00" departDelay="0.00" arrival="84.00" arrivalLane="-1584_2" arrivalPos="5.82" arrivalSpeed="10.78" duration="68.00" routeLength="567.48" waitingTime="0.00" waitingCount="0" stopTime="0.00" timeLoss="20.26" rerouteNo="0" devices="tripinfo_randomCar_1715983772027859836" vType="vehicle.dodge.charger_police_2020" speedFactor="1.09" vaporized=""/>
    <tripinfo id="randomCar_1715983771298072075" depart="18.00" departLane="-1512_1" departPos="0.20" departSpeed="0.00" departDelay="4.00" arrival="86.00" arrivalLane="-1508_1" arrivalPos="11.56" arrivalSpeed="13.58" duration="68.00" routeLength="743.42" waitingTime="0.00" waitingCount="0" stopTime="0.00" timeLoss="18.46" rerouteNo="0" devices="tripinfo_randomCar_1715983771298072075" vType="vehicle.dodge.charger_police_2020" speedFactor="1.15" vaporized=""/>
    <tripinfo id="randomCar_1715983771922046157" depart="18.00" departLane="-1517_1" departPos="5.34" departSpeed="0.00" departDelay="3.00" arrival="86.00" arrivalLane="-1573_1" arrivalPos="77.57" arrivalSpeed="10.26" duration="68.00" routeLength="684.30" waitingTime="2.00" waitingCount="1" stopTime="0.00" timeLoss="15.63" rerouteNo="0" devices="tripinfo_randomCar_1715983771922046157" vType="vehicle.dodge.charger_police_2020" speedFactor="1.00" vaporized=""/>
    <tripinfo id="randomCar_1715983771971829377" depart="15.00" departLane="-1567_1" departPos="5.34" departSpeed="0.00" departDelay="0.00" arrival="86.00" arrivalLane="-1665_2" arrivalPos="15.61" arrivalSpeed="3.21" duration="71.00" routeLength="206.06" waitingTime="24.00" waitingCount="2" stopTime="0.00" timeLoss="53.77" rerouteNo="0" devices="tripinfo_randomCar_1715983771971829377" vType="vehicle.dodge.charger_police_2020" speedFactor="0.97" vaporized=""/>
    <tripinfo id="randomCar_1715983771928518894" depart="15.00" departLane="-1574_1" departPos="5.34" departSpeed="0.00" departDelay="0.00" arrival="91.00" arrivalLane="-1661_1" arrivalPos="588.55" arrivalSpeed="6.92" duration="76.00" routeLength="850.79" waitingTime="0.00" waitingCount="0" stopTime="0.00" timeLoss="20.26" rerouteNo="0" devices="tripinfo_randomCar_1715983771928518894" vType="vehicle.dodge.charger_police_2020" speedFactor="1.10" vaporized=""/>
    <tripinfo id="randomCar_1715983770631541404" depart="13.00" departLane="-1461_1" departPos="5.34" departSpeed="0.00" departDelay="0.00" arrival="92.00" arrivalLane="-1653_2" arrivalPos="7.71" arrivalSpeed="9.70" duration="79.00" routeLength="749.76" waitingTime="0.00" waitingCount="0" stopTime="0.00" timeLoss="14.13" rerouteNo="0" devices="tripinfo_randomCar_1715983770631541404" vType="vehicle.dodge.charger_police_2020" speedFactor="0.83" vaporized=""/>
    <tripinfo id="randomCar_1715983770638181040" depart="16.00" departLane="-1643_1" departPos="5.34" departSpeed="0.00" departDelay="3.00" arrival="92.00" arrivalLane="-1432_1" arrivalPos="132.51" arrivalSpeed="9.73" duration="76.00" routeLength="691.16" waitingTime="0.00" waitingCount="0" stopTime="0.00" timeLoss="16.90" rerouteNo="0" devices="tripinfo_randomCar_1715983770638181040" vType="vehicle.dodge.charger_police_2020" speedFactor="0.95" vaporized=""/>
    <tripinfo id="randomCar_1715983771256799573" depart="14.00" departLane="-1452_1" departPos="5.34" departSpeed="0.00" departDelay="0.00" arrival="93.00" arrivalLane="-1662_1" arrivalPos="41.35" arrivalSpeed="13.98" duration="79.00" routeLength="919.77" waitingTime="0.00" waitingCount="0" stopTime="0.00" timeLoss="14.47" rerouteNo="0" devices="tripinfo_randomCar_1715983771256799573" vType="vehicle.dodge.charger_police_2020" speedFactor="1.04" vaporized=""/>
    <tripinfo id="randomCar_1715983771863595320" depart="15.00" departLane="-1665_1" departPos="5.34" departSpeed="0.00" departDelay="0.00" arrival="94.00" arrivalLane="-1584_1" arrivalPos="5.82" arrivalSpeed="9.25" duration="79.00" routeLength="147.30" waitingTime="43.00" waitingCount="2" stopTime="0.00" timeLoss="64.85" rerouteNo="0" devices="tripinfo_randomCar_1715983771863595320" vType="vehicle.dodge.charger_police_2020" speedFactor="0.95" vaporized=""/>
    <tripinfo id="randomCar_1715983771248300355" depart="14.00" departLane="-1537_1" departPos="5.34" departSpeed="0.00" departDelay="0.00" arrival="95.00" arrivalLane="-1586_1" arrivalPos="132.69" arrivalSpeed="9.29" duration="81.00" routeLength="821.98" waitingTime="0.00" waitingCount="0" stopTime="0.00" timeLoss="10.61" rerouteNo="0" devices="tripinfo_randomCar_1715983771248300355" vType="vehicle.dodge.charger_police_2020" speedFactor="0.91" vaporized=""/>
    <tripinfo id="randomCar_1715983768753221021" depart="10.00" departLane="-1631_1" departPos="5.34" departSpeed="0.00" departDelay="0.00" arrival="96.00" arrivalLane="-1499_0" arrivalPos="0.20" arrivalSpeed="8.68" duration="86.00" routeLength="1055.32" waitingTime="0.00" waitingCount="0" stopTime="0.00" timeLoss="8.85" rerouteNo="0" devices="tripinfo_randomCar_1715983768753221021" vType="vehicle.dodge.charger_police_2020" speedFactor="1.01" vaporized=""/>
    <tripinfo id="randomCar_1715983771988934212" depart="15.00" departLane="-1444_1" departPos="5.34" departSpeed="0.00" departDelay="0.00" arrival="99.00" arrivalLane="-1618_1" arrivalPos="128.84" arrivalSpeed="12.76" duration="84.00" routeLength="683.14" waitingTime="11.00" waitingCount="2" stopTime="0.00" timeLoss="31.64" rerouteNo="0" devices="tripinfo_randomCar_1715983771988934212" vType="vehicle.dodge.charger_police_2020" speedFactor="1.01" vaporized=""/>
    <tripinfo id="randomCar_1715983771251750022" depart="14.00" departLane="-1507_1" departPos="5.34" departSpeed="0.00" departDelay="0.00" arrival="101.00" arrivalLane="-1627_1" arrivalPos="33.68" arrivalSpeed="12.15" duration="87.00" routeLength="898.45" waitingTime="0.00" waitingCount="0" stopTime="0.00" timeLoss="12.14" rerouteNo="0" devices="tripinfo_randomCar_1715983771251750022" vType="vehicle.dodge.charger_police_2020" speedFactor="0.91" vaporized=""/>
    <tripinfo id="randomCar_1715983771958388706" depart="18.00" departLane="-1498_0" departPos="0.20" departSpeed="0.00" departDelay="3.00" arrival="104.00" arrivalLane="-1585_1" arrivalPos="1020.48" arrivalSpeed="13.89" duration="86.00" routeLength="1061.94" waitingTime="0.00" waitingCount="0" stopTime="0.00" timeLoss="9.01" rerouteNo="0" devices="tripinfo_randomCar_1715983771958388706" vType="vehicle.dodge.charger_police_2020" speedFactor="1.01" vaporized=""/>
    <tripinfo id="randomCar_1715983771259963243" depart="16.00" departLane="-1635_2" departPos="5.34" departSpeed="0.00" departDelay="2.00" arrival="106.00" arrivalLane="-1667_1" arrivalPos="0.20" arrivalSpeed="6.83" duration="90.00" routeLength="796.21" waitingTime="13.00" waitingCount="1" stopTime="0.00" timeLoss="29.75" rerouteNo="0" devices="tripinfo_randomCar_1715983771259963243" vType="vehicle.dodge.charger_police_2020" speedFactor="1.02" vaporized=""/>
    <tripinfo id="randomCar_1715983770041230798" depart="12.00" departLane="-1614_1" departPos="5.34" departSpeed="0.00" departDelay="0.00" arrival="111.00" arrivalLane="-1508_1" arrivalPos="11.56" arrivalSpeed="12.87" duration="99.00" routeLength="929.31" waitingTime="0.00" waitingCount="0" stopTime="0.00" timeLoss="16.43" rerouteNo="0" devices="tripinfo_randomCar_1715983770041230798" vType="vehicle.dodge.charger_police_2020" speedFactor="0.93" vaporized=""/>
    <tripinfo id="randomCar_1715983768756577489" depart="10.00" departLane="-1497_1" departPos="1.67" departSpeed="0.00" departDelay="0.00" arrival="113.00" arrivalLane="-1465_1" arrivalPos="11.38" arrivalSpeed="14.06" duration="103.00" routeLength="1274.43" waitingTime="0.00" waitingCount="0" stopTime="0.00" timeLoss="12.09" rerouteNo="0" devices="tripinfo_randomCar_1715983768756577489" vType="vehicle.dodge.charger_police_2020" speedFactor="1.03" vaporized=""/>
    <tripinfo id="randomCar_1715983769380918067" depart="11.00" departLane="-1511_1" departPos="0.20" departSpeed="0.00" departDelay="0.00" arrival="113.00" arrivalLane="-1613_1" arrivalPos="154.44" arrivalSpeed="13.78" duration="102.00" routeLength="1190.40" waitingTime="0.00" waitingCount="0" stopTime="0.00" timeLoss="13.45" rerouteNo="0" devices="tripinfo_randomCar_1715983769380918067" vType="vehicle.dodge.charger_police_2020" speedFactor="1.02" vaporized=""/>
    <tripinfo id="randomCar_1715983770652568601" depart="14.00" departLane="-1529_1" departPos="5.34" departSpeed="0.00" departDelay="1.00" arrival="113.00" arrivalLane="-1655_2" arrivalPos="0.20" arrivalSpeed="9.61" duration="99.00" routeLength="933.50" waitingTime="0.00" waitingCount="0" stopTime="0.00" timeLoss="21.12" rerouteNo="0" devices="tripinfo_randomCar_1715983770652568601" vType="vehicle.dodge.charger_police_2020" speedFactor="1.00" vaporized=""/>
    <tripinfo id="randomCar_1715983770626757350" depart="15.00" departLane="-1633_1" departPos="5.34" departSpeed="0.00" departDelay="2.00" arrival="114.00" arrivalLane="-1653_2" arrivalPos="7.71" arrivalSpeed="15.02" duration="99.00" routeLength="990.32" waitingTime="0.00" waitingCount="0" stopTime="0.00" timeLoss="31.90" rerouteNo="0" devices="tripinfo_randomCar_1715983770626757350" vType="vehicle.dodge.charger_police_2020" speedFactor="1.09" vaporized=""/>
    <tripinfo id="randomCar_1715983771874905911" depart="26.00" departLane="-1633_1" departPos="5.34" departSpeed="0.00" departDelay="11.00" arrival="114.00" arrivalLane="-1477_1" arrivalPos="41.35" arrivalSpeed="5.97" duration="88.00" routeLength="885.37" waitingTime="0.00" waitingCount="0" stopTime="0.00" timeLoss="26.84" rerouteNo="0" devices="tripinfo_randomCar_1715983771874905911" vType="vehicle.dodge.charger_police_2020" speedFactor="1.08" vaporized=""/>
    <tripinfo id="randomCar_1715983771925182026" depart="15.00" departLane="-1575_1" departPos="5.34" departSpeed="0.00" departDelay="0.00" arrival="116.00" arrivalLane="-1635_1" arrivalPos="70.06" arrivalSpeed="12.88" duration="101.00" routeLength="1124.48" waitingTime="0.00" waitingCount="0" stopTime="0.00" timeLoss="14.63" rerouteNo="0" devices="tripinfo_randomCar_1715983771925182026" vType="vehicle.dodge.charger_police_2020" speedFactor="0.98" vaporized=""/>
    <tripinfo id="randomCar_1715983771923233445" depart="15.00" departLane="-1599_1" departPos="5.34" departSpeed="0.00" departDelay="0.00" arrival="118.00" arrivalLane="-1522_1" arrivalPos="192.03" arrivalSpeed="12.28" duration="103.00" routeLength="922.98" waitingTime="8.00" waitingCount="1" stopTime="0.00" timeLoss="29.20" rerouteNo="0" devices="tripinfo_randomCar_1715983771923233445" vType="vehicle.dodge.charger_police_2020" speedFactor="0.96" vaporized=""/>
    <tripinfo id="randomCar_1715983771965776335" depart="15.00" departLane="-1505_1" departPos="0.20" departSpeed="0.00" departDelay="0.00" arrival="120.00" arrivalLane="-1526_0" arrivalPos="109.04" arrivalSpeed="26.90" duration="105.00" routeLength="659.12" waitingTime="38.00" waitingCount="2" stopTime="0.00" timeLoss="63.80" rerouteNo="0" devices="tripinfo_randomCar_1715983771965776335" vType="vehicle.dodge.charger_police_2020" speedFactor="1.21" vaporized=""/>
    <tripinfo id="randomCar_1715983770002884868" depart="12.00" departLane="-1646_1" departPos="5.34" departSpeed="0.00" departDelay="0.00" arrival="124.00" arrivalLane="-1619_1" arrivalPos="60.31" arrivalSpeed="18.64" duration="112.00" routeLength="377.74" waitingTime="63.00" waitingCount="3" stopTime="0.00" timeLoss="88.79" rerouteNo="0" devices="tripinfo_randomCar_1715983770002884868" vType="vehicle.dodge.charger_police_2020" speedFactor="0.94" vaporized=""/>
    <tripinfo id="randomCar_1715983770643957684" depart="43.00" departLane="-1649_1" departPos="0.20" departSpeed="0.00" departDelay="30.00" arrival="128.00" arrivalLane="-1505_2" arrivalPos="0.20" arrivalSpeed="4.43" duration="85.00" routeLength="888.59" waitingTime="0.00" waitingCount="0" stopTime="0.00" timeLoss="34.30" rerouteNo="0" devices="tripinfo_randomCar_1715983770643957684" vType="vehicle.dodge.charger_police_2020" speedFactor="1.19" vaporized=""/>
    <tripinfo id="randomCar_1715983771939928184" depart="15.00" departLane="-1464_1" departPos="5.34" departSpeed="0.00" departDelay="0.00" arrival="129.00" arrivalLane="-1424_1" arrivalPos="153.49" arrivalSpeed="14.07" duration="114.00" routeLength="1414.51" waitingTime="0.00" waitingCount="0" stopTime="0.00" timeLoss="13.75" rerouteNo="0" devices="tripinfo_randomCar_1715983771939928184" vType="vehicle.dodge.charger_police_2020" speedFactor="1.03" vaporized=""/>
    <tripinfo id="randomCar_1715983771942110163" depart="15.00" departLane="-1623_1" departPos="5.34" departSpeed="0.00" departDelay="0.00" arrival="135.00" arrivalLane="-1614_2" arrivalPos="110.20" arrivalSpeed="7.55" duration="120.00" routeLength="1354.04" waitingTime="0.00" waitingCount="0" stopTime="0.00" timeLoss="14.16" rerouteNo="0" devices="tripinfo_randomCar_1715983771942110163" vType="vehicle.dodge.charger_police_2020" speedFactor="1.04" vaporized=""/>
    <tripinfo id="randomCar_1715983770648857437" depart="13.00" departLane="-1476_1" departPos="5.34" departSpeed="0.00" departDelay="0.00" arrival="140.00" arrivalLane="-1661_1" arrivalPos="588.55" arrivalSpeed="12.60" duration="127.00" routeLength="1415.23" waitingTime="0.00" waitingCount="0" stopTime="0.00" timeLoss="19.33" rerouteNo="0" devices="tripinfo_randomCar_1715983770648857437" vType="vehicle.dodge.charger_police_2020" speedFactor="0.96" vaporized=""/>
    <tripinfo id="randomCar_1715983770638844834" depart="13.00" departLane="-1666_1" departPos="5.34" departSpeed="0.00" departDelay="0.00" arrival="143.00" arrivalLane="-1608_1" arrivalPos="287.59" arrivalSpeed="13.04" duration="130.00" routeLength="995.75" waitingTime="36.00" waitingCount="1" stopTime="0.00" timeLoss="56.62" rerouteNo="0" devices="tripinfo_randomCar_1715983770638844834" vType="vehicle.dodge.charger_police_2020" speedFactor="1.02" vaporized=""/>
    <tripinfo id="randomCar_1715983771997001334" depart="25.00" departLane="-1511_1" departPos="0.20" departSpeed="0.00" departDelay="10.00" arrival="146.00" arrivalLane="-1534_1" arrivalPos="117.02" arrivalSpeed="10.50" duration="121.00" routeLength="836.05" waitingTime="6.00" waitingCount="2" stopTime="0.00" timeLoss="34.75" rerouteNo="0" devices="tripinfo_randomCar_1715983771997001334" vType="vehicle.dodge.charger_police_2020" speedFactor="0.80" vaporized=""/>
    <tripinfo id="randomCar_1715983771884414820" depart="15.00" departLane="-1652_1" departPos="0.20" departSpeed="0.00" departDelay="0.00" arrival="158.00" arrivalLane="-1474_1" arrivalPos="118.69" arrivalSpeed="21.49" duration="143.00" routeLength="850.17" waitingTime="44.00" waitingCount="3" stopTime="0.00" timeLoss="86.10" rerouteNo="0" devices="tripinfo_randomCar_1715983771884414820" vType="vehicle.dodge.charger_police_2020" speedFactor="1.01" vaporized=""/>
    <tripinfo id="randomCar_1715983771995763146" depart="17.00" departLane="-1640_0" departPos="5.34" departSpeed="0.00" departDelay="2.00" arrival="158.00" arrivalLane="-1636_1" arrivalPos="104.54" arrivalSpeed="17.97" duration="141.00" routeLength="439.90" waitingTime="94.00" waitingCount="1" stopTime="0.00" timeLoss="111.41" rerouteNo="0" devices="tripinfo_randomCar_1715983771995763146" vType="vehicle.dodge.charger_police_2020" speedFactor="0.87" vaporized=""/>
    <tripinfo id="randomCar_1715983770640540617" depart="13.00" departLane="-1578_1" departPos="0.10" departSpeed="0.00" departDelay="0.00" arrival="164.00" arrivalLane="-1452_1" arrivalPos="432.19" arrivalSpeed="15.63" duration="151.00" routeLength="1584.76" waitingTime="8.00" waitingCount="2" stopTime="0.00" timeLoss="59.83" rerouteNo="0" devices="tripinfo_randomCar_1715983770640540617" vType="vehicle.dodge.charger_police_2020" speedFactor="1.19" vaporized=""/>
    <tripinfo id="randomCar_1715983770018021022" depart="13.00" departLane="-1631_1" departPos="5.34" departSpeed="0.00" departDelay="1.00" arrival="165.00" arrivalLane="-1599_1" arrivalPos="63.52" arrivalSpeed="13.57" duration="152.00" routeLength="1539.13" waitingTime="0.00" waitingCount="0" stopTime="0.00" timeLoss="38.99" rerouteNo="0" devices="tripinfo_randomCar_1715983770018021022" vType="vehicle.dodge.charger_police_2020" speedFactor="1.02" vaporized=""/>
    <tripinfo id="randomCar_1715983771313876223" depart="14.00" departLane="-1419_1" departPos="5.34" departSpeed="0.00" departDelay="0.00" arrival="169.00" arrivalLane="-1552_1" arrivalPos="15.12" arrivalSpeed="11.66" duration="155.00" routeLength="753.77" waitingTime="60.00" waitingCount="2" stopTime="0.00" timeLoss="91.45" rerouteNo="0" devices="tripinfo_randomCar_1715983771313876223" vType="vehicle.dodge.charger_police_2020" speedFactor="0.91" vaporized=""/>
    <tripinfo id="randomCar_1715983771975157244" depart="15.00" departLane="-1580_1" departPos="5.34" departSpeed="0.00" departDelay="0.00" arrival="169.00" arrivalLane="-1572_1" arrivalPos="59.16" arrivalSpeed="9.15" duration="154.00" routeLength="516.09" waitingTime="98.00" waitingCount="1" stopTime="0.00" timeLoss="109.11" rerouteNo="0" devices="tripinfo_randomCar_1715983771975157244" vType="vehicle.dodge.charger_police_2020" speedFactor="0.94" vaporized=""/>
</tripinfos>
