<?xml version="1.0" encoding="UTF-8"?>

<!-- generated on 2024-05-29 19:22:33 by Eclipse SUMO GUI Version 1.12.0
<configuration xmlns:xsi="http://www.w3.org/2001/XMLSchema-instance" xsi:noNamespaceSchemaLocation="http://sumo.dlr.de/xsd/sumoConfiguration.xsd">

    <input>
        <net-file value="Adapters/co_simulation/sumo_configuration/simple-map/UA.net.xml"/>
        <route-files value="Adapters/co_simulation/sumo_configuration/simple-map/carlavtypes.rou.xml,Adapters/co_simulation/sumo_configuration/simple-map/simple-map.rou.xml"/>
    </input>

    <output>
        <tripinfo-output value="tripinfo.xml"/>
    </output>

    <traci_server>
        <remote-port value="40637"/>
        <num-clients value="1"/>
    </traci_server>

    <gui_only>
        <gui-settings-file value="Adapters/co_simulation/sumo_configuration/simple-map/simple-map.view.xml"/>
        <quit-on-end value="true"/>
    </gui_only>

</configuration>
-->

<tripinfos xmlns:xsi="http://www.w3.org/2001/XMLSchema-instance" xsi:noNamespaceSchemaLocation="http://sumo.dlr.de/xsd/tripinfo_file.xsd">
    <tripinfo id="0" depart="3.00" departLane="-1466_1" departPos="5.34" departSpeed="0.00" departDelay="0.00" arrival="63.00" arrivalLane="-1427_1" arrivalPos="658.50" arrivalSpeed="14.10" duration="60.00" routeLength="796.66" waitingTime="0.00" waitingCount="0" stopTime="0.00" timeLoss="5.81" rerouteNo="0" devices="tripinfo_0" vType="vehicle.dodge.charger_police_2020" speedFactor="1.06" vaporized=""/>
    <tripinfo id="randomCar_1717007106371044219" depart="244.00" departLane="-1542_1" departPos="1.25" departSpeed="0.00" departDelay="1.00" arrival="245.00" arrivalLane="-1542_1" arrivalPos="1.25" arrivalSpeed="2.12" duration="1.00" routeLength="0.00" waitingTime="0.00" waitingCount="0" stopTime="0.00" timeLoss="0.85" rerouteNo="0" devices="tripinfo_randomCar_1717007106371044219" vType="vehicle.dodge.charger_police_2020" speedFactor="1.02" vaporized=""/>
    <tripinfo id="randomCar_1717007103187484753" depart="240.00" departLane="-1539_1" departPos="5.34" departSpeed="0.00" departDelay="2.00" arrival="249.00" arrivalLane="-1536_1" arrivalPos="7.78" arrivalSpeed="6.47" duration="9.00" routeLength="43.01" waitingTime="0.00" waitingCount="0" stopTime="0.00" timeLoss="5.81" rerouteNo="0" devices="tripinfo_randomCar_1717007103187484753" vType="vehicle.dodge.charger_police_2020" speedFactor="1.18" vaporized=""/>
    <tripinfo id="randomCar_1717007105765926126" depart="242.00" departLane="-1572_1" departPos="5.34" departSpeed="0.00" departDelay="0.00" arrival="250.00" arrivalLane="-1572_1" arrivalPos="59.16" arrivalSpeed="9.79" duration="8.00" routeLength="53.82" waitingTime="0.00" waitingCount="0" stopTime="0.00" timeLoss="2.66" rerouteNo="0" devices="tripinfo_randomCar_1717007105765926126" vType="vehicle.dodge.charger_police_2020" speedFactor="0.99" vaporized=""/>
    <tripinfo id="randomCar_1717007105806417552" depart="245.00" departLane="-1604_1" departPos="5.34" departSpeed="0.00" departDelay="3.00" arrival="253.00" arrivalLane="-1648_1" arrivalPos="0.25" arrivalSpeed="6.71" duration="8.00" routeLength="38.84" waitingTime="0.00" waitingCount="0" stopTime="0.00" timeLoss="3.95" rerouteNo="0" devices="tripinfo_randomCar_1717007105806417552" vType="vehicle.dodge.charger_police_2020" speedFactor="1.02" vaporized=""/>
    <tripinfo id="randomCar_1717007106984654817" depart="245.00" departLane="-1542_1" departPos="1.25" departSpeed="0.00" departDelay="1.00" arrival="253.00" arrivalLane="-1435_1" arrivalPos="47.64" arrivalSpeed="15.44" duration="8.00" routeLength="61.34" waitingTime="0.00" waitingCount="0" stopTime="0.00" timeLoss="3.56" rerouteNo="0" devices="tripinfo_randomCar_1717007106984654817" vType="vehicle.dodge.charger_police_2020" speedFactor="1.14" vaporized=""/>
    <tripinfo id="randomCar_1717007105686842475" depart="242.00" departLane="-1635_2" departPos="5.34" departSpeed="0.00" departDelay="0.00" arrival="265.00" arrivalLane="-1419_1" arrivalPos="86.08" arrivalSpeed="14.55" duration="23.00" routeLength="241.31" waitingTime="0.00" waitingCount="0" stopTime="0.00" timeLoss="5.24" rerouteNo="0" devices="tripinfo_randomCar_1717007105686842475" vType="vehicle.dodge.charger_police_2020" speedFactor="1.07" vaporized=""/>
    <tripinfo id="randomCar_1717007105790132542" depart="242.00" departLane="-1608_1" departPos="5.34" departSpeed="0.00" departDelay="0.00" arrival="265.00" arrivalLane="-1608.38_1" arrivalPos="249.92" arrivalSpeed="14.85" duration="23.00" routeLength="282.36" waitingTime="0.00" waitingCount="0" stopTime="0.00" timeLoss="3.95" rerouteNo="0" devices="tripinfo_randomCar_1717007105790132542" vType="vehicle.dodge.charger_police_2020" speedFactor="1.10" vaporized=""/>
    <tripinfo id="randomCar_1717007106914377272" depart="247.00" departLane="-1648_1" departPos="0.25" departSpeed="0.00" departDelay="3.00" arrival="268.00" arrivalLane="-1517_1" arrivalPos="11.76" arrivalSpeed="10.78" duration="21.00" routeLength="117.71" waitingTime="0.00" waitingCount="0" stopTime="0.00" timeLoss="8.76" rerouteNo="0" devices="tripinfo_randomCar_1717007106914377272" vType="vehicle.dodge.charger_police_2020" speedFactor="0.89" vaporized=""/>
    <tripinfo id="randomCar_1717007103175721645" depart="238.00" departLane="-1578_1" departPos="0.11" departSpeed="0.00" departDelay="0.00" arrival="275.00" arrivalLane="-1539_1" arrivalPos="6.82" arrivalSpeed="7.08" duration="37.00" routeLength="114.65" waitingTime="11.00" waitingCount="2" stopTime="0.00" timeLoss="27.45" rerouteNo="0" devices="tripinfo_randomCar_1717007103175721645" vType="vehicle.dodge.charger_police_2020" speedFactor="0.87" vaporized=""/>
    <tripinfo id="randomCar_1717007107000850828" depart="248.00" departLane="-1656_1" departPos="1.57" departSpeed="0.00" departDelay="4.00" arrival="275.00" arrivalLane="-1509_1" arrivalPos="256.85" arrivalSpeed="15.19" duration="27.00" routeLength="331.97" waitingTime="0.00" waitingCount="0" stopTime="0.00" timeLoss="4.43" rerouteNo="0" devices="tripinfo_randomCar_1717007107000850828" vType="vehicle.dodge.charger_police_2020" speedFactor="1.10" vaporized=""/>
    <tripinfo id="randomCar_1717007104438672865" depart="251.00" departLane="-1605_1" departPos="2.68" departSpeed="0.00" departDelay="11.00" arrival="282.00" arrivalLane="-1596_1" arrivalPos="134.55" arrivalSpeed="11.83" duration="31.00" routeLength="319.68" waitingTime="0.00" waitingCount="0" stopTime="0.00" timeLoss="5.56" rerouteNo="0" devices="tripinfo_randomCar_1717007104438672865" vType="vehicle.dodge.charger_police_2020" speedFactor="0.94" vaporized=""/>
    <tripinfo id="randomCar_1717007106992778522" depart="245.00" departLane="-1658_1" departPos="5.34" departSpeed="0.00" departDelay="1.00" arrival="286.00" arrivalLane="-1556_1" arrivalPos="74.30" arrivalSpeed="12.15" duration="41.00" routeLength="399.69" waitingTime="0.00" waitingCount="0" stopTime="0.00" timeLoss="9.26" rerouteNo="0" devices="tripinfo_randomCar_1717007106992778522" vType="vehicle.dodge.charger_police_2020" speedFactor="0.94" vaporized=""/>
    <tripinfo id="randomCar_1717007105680102170" depart="242.00" departLane="-1541_1" departPos="0.20" departSpeed="0.00" departDelay="0.00" arrival="287.00" arrivalLane="-1601_1" arrivalPos="6.57" arrivalSpeed="9.87" duration="45.00" routeLength="410.70" waitingTime="2.00" waitingCount="1" stopTime="0.00" timeLoss="9.72" rerouteNo="0" devices="tripinfo_randomCar_1717007105680102170" vType="vehicle.dodge.charger_police_2020" speedFactor="0.87" vaporized=""/>
    <tripinfo id="randomCar_1717007103801029751" depart="244.00" departLane="-1656_1" departPos="1.57" departSpeed="0.00" departDelay="5.00" arrival="288.00" arrivalLane="-1608.38_1" arrivalPos="249.92" arrivalSpeed="12.99" duration="44.00" routeLength="391.92" waitingTime="3.00" waitingCount="1" stopTime="0.00" timeLoss="14.37" rerouteNo="0" devices="tripinfo_randomCar_1717007103801029751" vType="vehicle.dodge.charger_police_2020" speedFactor="0.96" vaporized=""/>
    <tripinfo id="randomCar_1717007102557258144" depart="239.00" departLane="-1527_1" departPos="5.34" departSpeed="0.00" departDelay="2.00" arrival="291.00" arrivalLane="-1622_1" arrivalPos="88.61" arrivalSpeed="5.90" duration="52.00" routeLength="196.83" waitingTime="24.00" waitingCount="1" stopTime="0.00" timeLoss="38.71" rerouteNo="0" devices="tripinfo_randomCar_1717007102557258144" vType="vehicle.dodge.charger_police_2020" speedFactor="1.08" vaporized=""/>
    <tripinfo id="randomCar_1717007101930726337" depart="236.00" departLane="-1654_1" departPos="0.20" departSpeed="0.00" departDelay="0.00" arrival="292.00" arrivalLane="-1667_1" arrivalPos="0.10" arrivalSpeed="6.63" duration="56.00" routeLength="582.30" waitingTime="0.00" waitingCount="0" stopTime="0.00" timeLoss="8.42" rerouteNo="0" devices="tripinfo_randomCar_1717007101930726337" vType="vehicle.dodge.charger_police_2020" speedFactor="0.91" vaporized=""/>
    <tripinfo id="randomCar_1717007106923462377" depart="244.00" departLane="-1594_1" departPos="0.20" departSpeed="0.00" departDelay="0.00" arrival="294.00" arrivalLane="-1647_1" arrivalPos="0.21" arrivalSpeed="8.10" duration="50.00" routeLength="156.96" waitingTime="8.00" waitingCount="2" stopTime="0.00" timeLoss="36.05" rerouteNo="0" devices="tripinfo_randomCar_1717007106923462377" vType="vehicle.dodge.charger_police_2020" speedFactor="1.11" vaporized=""/>
    <tripinfo id="randomCar_1717007106331776593" depart="243.00" departLane="-1485_1" departPos="0.20" departSpeed="0.00" departDelay="0.00" arrival="302.00" arrivalLane="-1631_1" arrivalPos="7.49" arrivalSpeed="12.45" duration="59.00" routeLength="673.85" waitingTime="0.00" waitingCount="0" stopTime="0.00" timeLoss="8.26" rerouteNo="0" devices="tripinfo_randomCar_1717007106331776593" vType="vehicle.dodge.charger_police_2020" speedFactor="0.96" vaporized=""/>
    <tripinfo id="randomCar_1717007106384837828" depart="248.00" departLane="-1653_1" departPos="5.34" departSpeed="0.00" departDelay="5.00" arrival="302.00" arrivalLane="-1637_1" arrivalPos="51.65" arrivalSpeed="7.76" duration="54.00" routeLength="432.59" waitingTime="0.00" waitingCount="0" stopTime="0.00" timeLoss="24.34" rerouteNo="0" devices="tripinfo_randomCar_1717007106384837828" vType="vehicle.dodge.charger_police_2020" speedFactor="1.10" vaporized=""/>
    <tripinfo id="randomCar_1717007106386658329" depart="252.00" departLane="-1474_1" departPos="5.34" departSpeed="0.00" departDelay="9.00" arrival="303.00" arrivalLane="-1638_1" arrivalPos="190.89" arrivalSpeed="13.90" duration="51.00" routeLength="668.60" waitingTime="0.00" waitingCount="0" stopTime="0.00" timeLoss="12.03" rerouteNo="0" devices="tripinfo_randomCar_1717007106386658329" vType="vehicle.dodge.charger_police_2020" speedFactor="1.02" vaporized=""/>
    <tripinfo id="randomCar_1717007106446164468" depart="247.00" departLane="-1471_1" departPos="5.34" departSpeed="0.00" departDelay="3.00" arrival="303.00" arrivalLane="-1649_1" arrivalPos="0.20" arrivalSpeed="7.23" duration="56.00" routeLength="550.06" waitingTime="3.00" waitingCount="2" stopTime="0.00" timeLoss="21.74" rerouteNo="0" devices="tripinfo_randomCar_1717007106446164468" vType="vehicle.dodge.charger_police_2020" speedFactor="0.87" vaporized=""/>
    <tripinfo id="randomCar_1717007105117742906" depart="241.00" departLane="-1578_1" departPos="0.11" departSpeed="0.00" departDelay="0.00" arrival="307.00" arrivalLane="-1541_1" arrivalPos="0.20" arrivalSpeed="4.65" duration="66.00" routeLength="165.02" waitingTime="30.00" waitingCount="4" stopTime="0.00" timeLoss="53.43" rerouteNo="0" devices="tripinfo_randomCar_1717007105117742906" vType="vehicle.dodge.charger_police_2020" speedFactor="0.88" vaporized=""/>
    <tripinfo id="randomCar_1717007106954859398" depart="247.00" departLane="-1619_1" departPos="5.34" departSpeed="0.00" departDelay="3.00" arrival="309.00" arrivalLane="-1439_1" arrivalPos="0.20" arrivalSpeed="6.86" duration="62.00" routeLength="177.66" waitingTime="26.00" waitingCount="3" stopTime="0.00" timeLoss="48.65" rerouteNo="0" devices="tripinfo_randomCar_1717007106954859398" vType="vehicle.dodge.charger_police_2020" speedFactor="0.97" vaporized=""/>
    <tripinfo id="randomCar_1717007103168095040" depart="238.00" departLane="-1439_1" departPos="0.20" departSpeed="0.00" departDelay="0.00" arrival="310.00" arrivalLane="-1537_1" arrivalPos="45.63" arrivalSpeed="5.82" duration="72.00" routeLength="256.53" waitingTime="21.00" waitingCount="3" stopTime="0.00" timeLoss="48.25" rerouteNo="0" devices="tripinfo_randomCar_1717007103168095040" vType="vehicle.dodge.charger_police_2020" speedFactor="0.96" vaporized=""/>
    <tripinfo id="randomCar_1717007104433348461" depart="245.00" departLane="-1589_1" departPos="5.34" departSpeed="0.00" departDelay="5.00" arrival="310.00" arrivalLane="-1597_1" arrivalPos="29.36" arrivalSpeed="13.13" duration="65.00" routeLength="469.35" waitingTime="9.00" waitingCount="2" stopTime="0.00" timeLoss="29.35" rerouteNo="0" devices="tripinfo_randomCar_1717007104433348461" vType="vehicle.dodge.charger_police_2020" speedFactor="1.00" vaporized=""/>
    <tripinfo id="randomCar_1717007105058127267" depart="241.00" departLane="-1471_1" departPos="5.34" departSpeed="0.00" departDelay="0.00" arrival="310.00" arrivalLane="-1630_1" arrivalPos="19.33" arrivalSpeed="16.12" duration="69.00" routeLength="790.30" waitingTime="4.00" waitingCount="1" stopTime="0.00" timeLoss="26.09" rerouteNo="0" devices="tripinfo_randomCar_1717007105058127267" vType="vehicle.dodge.charger_police_2020" speedFactor="1.25" vaporized=""/>
    <tripinfo id="randomCar_1717007106977926313" depart="247.00" departLane="-1510_1" departPos="0.94" departSpeed="0.00" departDelay="3.00" arrival="310.00" arrivalLane="-1612_2" arrivalPos="219.69" arrivalSpeed="15.95" duration="63.00" routeLength="592.26" waitingTime="1.00" waitingCount="1" stopTime="0.00" timeLoss="23.44" rerouteNo="0" devices="tripinfo_randomCar_1717007106977926313" vType="vehicle.dodge.charger_police_2020" speedFactor="1.20" vaporized=""/>
    <tripinfo id="randomCar_1717007103184974451" depart="240.00" departLane="-1523_1" departPos="5.34" departSpeed="0.00" departDelay="2.00" arrival="311.00" arrivalLane="-1556_1" arrivalPos="74.30" arrivalSpeed="13.97" duration="71.00" routeLength="414.12" waitingTime="7.00" waitingCount="2" stopTime="0.00" timeLoss="41.21" rerouteNo="0" devices="tripinfo_randomCar_1717007103184974451" vType="vehicle.dodge.charger_police_2020" speedFactor="1.10" vaporized=""/>
    <tripinfo id="randomCar_1717007105706485188" depart="242.00" departLane="-1543_1" departPos="5.34" departSpeed="0.00" departDelay="0.00" arrival="314.00" arrivalLane="-1521_1" arrivalPos="0.20" arrivalSpeed="5.43" duration="72.00" routeLength="159.14" waitingTime="32.00" waitingCount="4" stopTime="0.00" timeLoss="60.45" rerouteNo="0" devices="tripinfo_randomCar_1717007105706485188" vType="vehicle.dodge.charger_police_2020" speedFactor="1.10" vaporized=""/>
    <tripinfo id="randomCar_1717007101306794129" depart="235.00" departLane="-1570_1" departPos="5.34" departSpeed="0.00" departDelay="0.00" arrival="317.00" arrivalLane="-1477_1" arrivalPos="41.34" arrivalSpeed="11.02" duration="82.00" routeLength="777.26" waitingTime="0.00" waitingCount="0" stopTime="0.00" timeLoss="20.90" rerouteNo="0" devices="tripinfo_randomCar_1717007101306794129" vType="vehicle.dodge.charger_police_2020" speedFactor="0.94" vaporized=""/>
    <tripinfo id="randomCar_1717007104436046863" depart="241.00" departLane="-1651_1" departPos="5.34" departSpeed="0.00" departDelay="1.00" arrival="322.00" arrivalLane="-1635_1" arrivalPos="70.06" arrivalSpeed="15.52" duration="81.00" routeLength="728.98" waitingTime="2.00" waitingCount="2" stopTime="0.00" timeLoss="34.45" rerouteNo="0" devices="tripinfo_randomCar_1717007104436046863" vType="vehicle.dodge.charger_police_2020" speedFactor="1.16" vaporized=""/>
    <tripinfo id="randomCar_1717007105808869054" depart="243.00" departLane="-1529_1" departPos="5.34" departSpeed="0.00" departDelay="0.00" arrival="322.00" arrivalLane="-1616_2" arrivalPos="109.27" arrivalSpeed="7.85" duration="79.00" routeLength="577.64" waitingTime="3.00" waitingCount="1" stopTime="0.00" timeLoss="25.16" rerouteNo="0" devices="tripinfo_randomCar_1717007105808869054" vType="vehicle.dodge.charger_police_2020" speedFactor="1.07" vaporized=""/>
    <tripinfo id="randomCar_1717007104443840668" depart="240.00" departLane="-1462_1" departPos="5.34" departSpeed="0.00" departDelay="0.00" arrival="326.00" arrivalLane="-1653_2" arrivalPos="7.73" arrivalSpeed="8.93" duration="86.00" routeLength="769.49" waitingTime="0.00" waitingCount="0" stopTime="0.00" timeLoss="9.43" rerouteNo="0" devices="tripinfo_randomCar_1717007104443840668" vType="vehicle.dodge.charger_police_2020" speedFactor="0.73" vaporized=""/>
    <tripinfo id="randomCar_1717007107034537250" depart="320.00" departLane="-1578_1" departPos="0.11" departSpeed="0.00" departDelay="76.00" arrival="327.00" arrivalLane="-1518_1" arrivalPos="20.08" arrivalSpeed="11.39" duration="7.00" routeLength="38.03" waitingTime="1.00" waitingCount="1" stopTime="0.00" timeLoss="4.50" rerouteNo="0" devices="tripinfo_randomCar_1717007107034537250" vType="vehicle.dodge.charger_police_2020" speedFactor="1.10" vaporized=""/>
    <tripinfo id="randomCar_1717007107535659475" depart="261.00" departLane="-1603_1" departPos="0.20" departSpeed="0.00" departDelay="16.00" arrival="328.00" arrivalLane="-1394_1" arrivalPos="288.77" arrivalSpeed="15.78" duration="67.00" routeLength="761.73" waitingTime="0.00" waitingCount="0" stopTime="0.00" timeLoss="16.63" rerouteNo="0" devices="tripinfo_randomCar_1717007107535659475" vType="vehicle.dodge.charger_police_2020" speedFactor="1.15" vaporized=""/>
    <tripinfo id="randomCar_1717007106349223805" depart="244.00" departLane="-1642_1" departPos="5.34" departSpeed="0.00" departDelay="1.00" arrival="332.00" arrivalLane="-1615_1" arrivalPos="42.90" arrivalSpeed="13.83" duration="88.00" routeLength="654.48" waitingTime="9.00" waitingCount="1" stopTime="0.00" timeLoss="36.50" rerouteNo="0" devices="tripinfo_randomCar_1717007106349223805" vType="vehicle.dodge.charger_police_2020" speedFactor="1.05" vaporized=""/>
    <tripinfo id="randomCar_1717007105676643068" depart="242.00" departLane="-1622_1" departPos="5.34" departSpeed="0.00" departDelay="0.00" arrival="333.00" arrivalLane="-1521_1" arrivalPos="0.20" arrivalSpeed="5.23" duration="91.00" routeLength="383.50" waitingTime="37.00" waitingCount="2" stopTime="0.00" timeLoss="54.29" rerouteNo="0" devices="tripinfo_randomCar_1717007105676643068" vType="vehicle.dodge.charger_police_2020" speedFactor="0.95" vaporized=""/>
    <tripinfo id="randomCar_1717007105097299392" depart="241.00" departLane="-1552_2" departPos="5.34" departSpeed="0.00" departDelay="0.00" arrival="334.00" arrivalLane="-1588_1" arrivalPos="0.20" arrivalSpeed="6.67" duration="93.00" routeLength="245.39" waitingTime="31.00" waitingCount="5" stopTime="0.00" timeLoss="74.23" rerouteNo="0" devices="tripinfo_randomCar_1717007105097299392" vType="vehicle.dodge.charger_police_2020" speedFactor="1.03" vaporized=""/>
    <tripinfo id="randomCar_1717007105668662563" depart="242.00" departLane="-1570_1" departPos="5.34" departSpeed="0.00" departDelay="0.00" arrival="335.00" arrivalLane="-1662_1" arrivalPos="41.34" arrivalSpeed="13.55" duration="93.00" routeLength="948.30" waitingTime="0.00" waitingCount="0" stopTime="0.00" timeLoss="25.22" rerouteNo="0" devices="tripinfo_randomCar_1717007105668662563" vType="vehicle.dodge.charger_police_2020" speedFactor="1.03" vaporized=""/>
    <tripinfo id="randomCar_1717007105757110520" depart="245.00" departLane="-1537_1" departPos="5.34" departSpeed="0.00" departDelay="3.00" arrival="335.00" arrivalLane="-1586_1" arrivalPos="132.69" arrivalSpeed="13.79" duration="90.00" routeLength="822.01" waitingTime="9.00" waitingCount="1" stopTime="0.00" timeLoss="38.42" rerouteNo="0" devices="tripinfo_randomCar_1717007105757110520" vType="vehicle.dodge.charger_police_2020" speedFactor="1.24" vaporized=""/>
    <tripinfo id="randomCar_1717007106927509780" depart="246.00" departLane="-1615_1" departPos="5.34" departSpeed="0.00" departDelay="2.00" arrival="335.00" arrivalLane="-1655_2" arrivalPos="0.20" arrivalSpeed="9.35" duration="89.00" routeLength="742.83" waitingTime="4.00" waitingCount="1" stopTime="0.00" timeLoss="29.32" rerouteNo="0" devices="tripinfo_randomCar_1717007106927509780" vType="vehicle.dodge.charger_police_2020" speedFactor="0.98" vaporized=""/>
    <tripinfo id="randomCar_1717007105718492095" depart="242.00" departLane="-1609_2" departPos="5.34" departSpeed="0.00" departDelay="0.00" arrival="337.00" arrivalLane="-1531_1" arrivalPos="96.99" arrivalSpeed="11.39" duration="95.00" routeLength="644.23" waitingTime="13.00" waitingCount="1" stopTime="0.00" timeLoss="42.59" rerouteNo="0" devices="tripinfo_randomCar_1717007105718492095" vType="vehicle.dodge.charger_police_2020" speedFactor="0.83" vaporized=""/>
    <tripinfo id="randomCar_1717007106361012112" depart="243.00" departLane="-1404_1" departPos="5.34" departSpeed="0.00" departDelay="0.00" arrival="337.00" arrivalLane="-1439_1" arrivalPos="0.20" arrivalSpeed="5.72" duration="94.00" routeLength="769.30" waitingTime="20.00" waitingCount="1" stopTime="0.00" timeLoss="41.46" rerouteNo="0" devices="tripinfo_randomCar_1717007106361012112" vType="vehicle.dodge.charger_police_2020" speedFactor="0.90" vaporized=""/>
    <tripinfo id="randomCar_1717007105660219258" depart="242.00" departLane="-1627_2" departPos="5.34" departSpeed="0.00" departDelay="0.00" arrival="339.00" arrivalLane="-1571_1" arrivalPos="58.33" arrivalSpeed="10.95" duration="97.00" routeLength="640.67" waitingTime="19.00" waitingCount="2" stopTime="0.00" timeLoss="49.52" rerouteNo="0" devices="tripinfo_randomCar_1717007105660219258" vType="vehicle.dodge.charger_police_2020" speedFactor="1.10" vaporized=""/>
    <tripinfo id="randomCar_1717007106390258331" depart="243.00" departLane="-1622_2" departPos="5.34" departSpeed="0.00" departDelay="0.00" arrival="342.00" arrivalLane="-1510_2" arrivalPos="0.94" arrivalSpeed="7.87" duration="99.00" routeLength="515.71" waitingTime="34.00" waitingCount="1" stopTime="0.00" timeLoss="54.02" rerouteNo="0" devices="tripinfo_randomCar_1717007106390258331" vType="vehicle.dodge.charger_police_2020" speedFactor="1.05" vaporized=""/>
    <tripinfo id="randomCar_1717007106400797738" depart="253.00" departLane="-1622_2" departPos="5.34" departSpeed="0.00" departDelay="10.00" arrival="342.00" arrivalLane="-1577_1" arrivalPos="38.25" arrivalSpeed="12.62" duration="89.00" routeLength="596.06" waitingTime="26.00" waitingCount="1" stopTime="0.00" timeLoss="43.64" rerouteNo="0" devices="tripinfo_randomCar_1717007106400797738" vType="vehicle.dodge.charger_police_2020" speedFactor="0.96" vaporized=""/>
    <tripinfo id="randomCar_1717007106982554416" depart="274.00" departLane="-1524_1" departPos="5.34" departSpeed="0.00" departDelay="30.00" arrival="342.00" arrivalLane="-1485_1" arrivalPos="0.20" arrivalSpeed="15.39" duration="68.00" routeLength="674.92" waitingTime="7.00" waitingCount="1" stopTime="0.00" timeLoss="21.24" rerouteNo="0" devices="tripinfo_randomCar_1717007106982554416" vType="vehicle.dodge.charger_police_2020" speedFactor="1.11" vaporized=""/>
    <tripinfo id="randomCar_1717007106439374263" depart="247.00" departLane="-1508_1" departPos="5.34" departSpeed="0.00" departDelay="4.00" arrival="343.00" arrivalLane="-1613_1" arrivalPos="154.43" arrivalSpeed="14.09" duration="96.00" routeLength="1091.07" waitingTime="0.00" waitingCount="0" stopTime="0.00" timeLoss="21.67" rerouteNo="0" devices="tripinfo_randomCar_1717007106439374263" vType="vehicle.dodge.charger_police_2020" speedFactor="1.09" vaporized=""/>
    <tripinfo id="randomCar_1717007104434209062" depart="240.00" departLane="-1605_1" departPos="2.68" departSpeed="0.00" departDelay="0.00" arrival="344.00" arrivalLane="-1518_1" arrivalPos="20.08" arrivalSpeed="13.13" duration="104.00" routeLength="156.29" waitingTime="79.00" waitingCount="1" stopTime="0.00" timeLoss="91.02" rerouteNo="0" devices="tripinfo_randomCar_1717007104434209062" vType="vehicle.dodge.charger_police_2020" speedFactor="0.95" vaporized=""/>
    <tripinfo id="randomCar_1717007106890424156" depart="251.00" departLane="-1541_1" departPos="0.20" departSpeed="0.00" departDelay="7.00" arrival="348.00" arrivalLane="-1433_1" arrivalPos="10.24" arrivalSpeed="13.56" duration="97.00" routeLength="238.50" waitingTime="47.00" waitingCount="4" stopTime="0.00" timeLoss="78.69" rerouteNo="0" devices="tripinfo_randomCar_1717007106890424156" vType="vehicle.dodge.charger_police_2020" speedFactor="1.01" vaporized=""/>
    <tripinfo id="randomCar_1717007105779212535" depart="248.00" departLane="-1537_1" departPos="5.34" departSpeed="0.00" departDelay="6.00" arrival="351.00" arrivalLane="-1603_1" arrivalPos="0.20" arrivalSpeed="5.07" duration="103.00" routeLength="169.36" waitingTime="37.00" waitingCount="4" stopTime="0.00" timeLoss="87.14" rerouteNo="0" devices="tripinfo_randomCar_1717007105779212535" vType="vehicle.dodge.charger_police_2020" speedFactor="0.91" vaporized=""/>
    <tripinfo id="randomCar_1717007105785640139" depart="242.00" departLane="-1652_1" departPos="0.20" departSpeed="0.00" departDelay="0.00" arrival="351.00" arrivalLane="-1452_1" arrivalPos="432.19" arrivalSpeed="13.59" duration="109.00" routeLength="1218.56" waitingTime="0.00" waitingCount="0" stopTime="0.00" timeLoss="21.88" rerouteNo="0" devices="tripinfo_randomCar_1717007105785640139" vType="vehicle.dodge.charger_police_2020" speedFactor="1.04" vaporized=""/>
    <tripinfo id="randomCar_1717007106291193967" depart="243.00" departLane="-1653_1" departPos="5.34" departSpeed="0.00" departDelay="0.00" arrival="352.00" arrivalLane="-1461_1" arrivalPos="595.11" arrivalSpeed="13.78" duration="109.00" routeLength="1273.74" waitingTime="0.00" waitingCount="0" stopTime="0.00" timeLoss="16.46" rerouteNo="0" devices="tripinfo_randomCar_1717007106291193967" vType="vehicle.dodge.charger_police_2020" speedFactor="1.00" vaporized=""/>
    <tripinfo id="randomCar_1717007105075307978" depart="241.00" departLane="-1428_1" departPos="5.34" departSpeed="0.00" departDelay="0.00" arrival="353.00" arrivalLane="-1635_1" arrivalPos="70.06" arrivalSpeed="10.95" duration="112.00" routeLength="1110.78" waitingTime="0.00" waitingCount="0" stopTime="0.00" timeLoss="16.44" rerouteNo="0" devices="tripinfo_randomCar_1717007105075307978" vType="vehicle.dodge.charger_police_2020" speedFactor="0.87" vaporized=""/>
    <tripinfo id="randomCar_1717007106273921756" depart="246.00" departLane="-1455_1" departPos="3.17" departSpeed="0.00" departDelay="3.00" arrival="353.00" arrivalLane="-1531_1" arrivalPos="96.99" arrivalSpeed="14.37" duration="107.00" routeLength="433.95" waitingTime="45.00" waitingCount="2" stopTime="0.00" timeLoss="78.40" rerouteNo="0" devices="tripinfo_randomCar_1717007106273921756" vType="vehicle.dodge.charger_police_2020" speedFactor="1.04" vaporized=""/>
    <tripinfo id="randomCar_1717007106405303641" depart="243.00" departLane="-1601_1" departPos="5.34" departSpeed="0.00" departDelay="0.00" arrival="353.00" arrivalLane="-1647_1" arrivalPos="0.21" arrivalSpeed="6.15" duration="110.00" routeLength="965.56" waitingTime="17.00" waitingCount="4" stopTime="0.00" timeLoss="42.97" rerouteNo="0" devices="tripinfo_randomCar_1717007106405303641" vType="vehicle.dodge.charger_police_2020" speedFactor="0.87" vaporized=""/>
    <tripinfo id="randomCar_1717007103180932648" depart="238.00" departLane="-1572_1" departPos="5.34" departSpeed="0.00" departDelay="0.00" arrival="355.00" arrivalLane="-1516_1" arrivalPos="11.61" arrivalSpeed="10.82" duration="117.00" routeLength="908.01" waitingTime="33.00" waitingCount="2" stopTime="0.00" timeLoss="62.85" rerouteNo="0" devices="tripinfo_randomCar_1717007103180932648" vType="vehicle.dodge.charger_police_2020" speedFactor="1.01" vaporized=""/>
    <tripinfo id="randomCar_1717007105697915082" depart="242.00" departLane="-1629_1" departPos="5.34" departSpeed="0.00" departDelay="0.00" arrival="355.00" arrivalLane="-1569_1" arrivalPos="153.12" arrivalSpeed="12.98" duration="113.00" routeLength="849.42" waitingTime="18.00" waitingCount="1" stopTime="0.00" timeLoss="39.65" rerouteNo="0" devices="tripinfo_randomCar_1717007105697915082" vType="vehicle.dodge.charger_police_2020" speedFactor="0.96" vaporized=""/>
    <tripinfo id="randomCar_1717007105703902986" depart="243.00" departLane="-1507_1" departPos="5.34" departSpeed="0.00" departDelay="1.00" arrival="355.00" arrivalLane="-1647_1" arrivalPos="0.21" arrivalSpeed="6.80" duration="112.00" routeLength="762.56" waitingTime="16.00" waitingCount="3" stopTime="0.00" timeLoss="53.51" rerouteNo="0" devices="tripinfo_randomCar_1717007105703902986" vType="vehicle.dodge.charger_police_2020" speedFactor="0.98" vaporized=""/>
    <tripinfo id="randomCar_1717007106435773561" depart="307.00" departLane="-1408_1" departPos="0.20" departSpeed="0.00" departDelay="64.00" arrival="356.00" arrivalLane="-1534_1" arrivalPos="117.01" arrivalSpeed="14.15" duration="49.00" routeLength="571.30" waitingTime="1.00" waitingCount="1" stopTime="0.00" timeLoss="8.37" rerouteNo="0" devices="tripinfo_randomCar_1717007106435773561" vType="vehicle.dodge.charger_police_2020" speedFactor="1.07" vaporized=""/>
    <tripinfo id="randomCar_1717007106961121702" depart="246.00" departLane="-1507_1" departPos="5.34" departSpeed="0.00" departDelay="2.00" arrival="357.00" arrivalLane="-1432_1" arrivalPos="132.51" arrivalSpeed="10.39" duration="111.00" routeLength="1187.94" waitingTime="0.00" waitingCount="0" stopTime="0.00" timeLoss="20.59" rerouteNo="0" devices="tripinfo_randomCar_1717007106961121702" vType="vehicle.dodge.charger_police_2020" speedFactor="1.03" vaporized=""/>