<?xml version="1.0" encoding="UTF-8"?>

<!-- generated on 2024-05-18 19:50:51 by Eclipse SUMO GUI Version 1.12.0
<configuration xmlns:xsi="http://www.w3.org/2001/XMLSchema-instance" xsi:noNamespaceSchemaLocation="http://sumo.dlr.de/xsd/sumoConfiguration.xsd">

    <input>
        <net-file value="Adapters/co_simulation/sumo_configuration/simple-map/UA.net.xml"/>
        <route-files value="Adapters/co_simulation/sumo_configuration/simple-map/carlavtypes.rou.xml,Adapters/co_simulation/sumo_configuration/simple-map/simple-map.rou.xml"/>
    </input>

    <output>
        <tripinfo-output value="tripinfo.xml"/>
    </output>

    <traci_server>
        <remote-port value="34177"/>
        <num-clients value="1"/>
    </traci_server>

    <gui_only>
        <gui-settings-file value="Adapters/co_simulation/sumo_configuration/simple-map/simple-map.view.xml"/>
        <quit-on-end value="true"/>
    </gui_only>

</configuration>
-->

<tripinfos xmlns:xsi="http://www.w3.org/2001/XMLSchema-instance" xsi:noNamespaceSchemaLocation="http://sumo.dlr.de/xsd/tripinfo_file.xsd">
    <tripinfo id="0" depart="3.00" departLane="-1466_1" departPos="5.34" departSpeed="0.00" departDelay="0.00" arrival="12.00" arrivalLane="-1465_1" arrivalPos="11.38" arrivalSpeed="13.75" duration="9.00" routeLength="73.18" waitingTime="0.00" waitingCount="0" stopTime="0.00" timeLoss="3.49" rerouteNo="0" devices="tripinfo_0" vType="vehicle.dodge.charger_police_2020" speedFactor="1.06" vaporized=""/>
    <tripinfo id="randomCar_1716058281439429279" depart="15.00" departLane="-1434_1" departPos="0.20" departSpeed="0.00" departDelay="0.00" arrival="21.00" arrivalLane="-1408_1" arrivalPos="0.20" arrivalSpeed="5.79" duration="6.00" routeLength="32.82" waitingTime="0.00" waitingCount="0" stopTime="0.00" timeLoss="1.73" rerouteNo="0" devices="tripinfo_randomCar_1716058281439429279" vType="vehicle.dodge.charger_police_2020" speedFactor="1.01" vaporized=""/>
    <tripinfo id="randomCar_1716058281442106824" depart="15.00" departLane="-1435_1" departPos="5.34" departSpeed="0.00" departDelay="0.00" arrival="23.00" arrivalLane="-1541_1" arrivalPos="0.20" arrivalSpeed="5.71" duration="8.00" routeLength="51.29" waitingTime="0.00" waitingCount="0" stopTime="0.00" timeLoss="3.52" rerouteNo="0" devices="tripinfo_randomCar_1716058281442106824" vType="vehicle.dodge.charger_police_2020" speedFactor="0.96" vaporized=""/>
    <tripinfo id="randomCar_1716058281432193129" depart="15.00" departLane="-1647_1" departPos="0.20" departSpeed="0.00" departDelay="0.00" arrival="26.00" arrivalLane="-1434_1" arrivalPos="0.20" arrivalSpeed="11.65" duration="11.00" routeLength="88.52" waitingTime="0.00" waitingCount="0" stopTime="0.00" timeLoss="3.37" rerouteNo="0" devices="tripinfo_randomCar_1716058281432193129" vType="vehicle.dodge.charger_police_2020" speedFactor="0.90" vaporized=""/>
    <tripinfo id="randomCar_1716058282069748361" depart="16.00" departLane="-1623_1" departPos="5.34" departSpeed="0.00" departDelay="0.00" arrival="42.00" arrivalLane="-1623_1" arrivalPos="282.61" arrivalSpeed="12.87" duration="26.00" routeLength="277.27" waitingTime="0.00" waitingCount="0" stopTime="0.00" timeLoss="4.23" rerouteNo="0" devices="tripinfo_randomCar_1716058282069748361" vType="vehicle.dodge.charger_police_2020" speedFactor="0.96" vaporized=""/>
    <tripinfo id="randomCar_1716058283314740949" depart="18.00" departLane="-1621_1" departPos="3.16" departSpeed="0.00" departDelay="0.00" arrival="44.00" arrivalLane="-1435_1" arrivalPos="47.64" arrivalSpeed="13.46" duration="26.00" routeLength="232.95" waitingTime="0.00" waitingCount="0" stopTime="0.00" timeLoss="12.59" rerouteNo="0" devices="tripinfo_randomCar_1716058283314740949" vType="vehicle.dodge.charger_police_2020" speedFactor="1.01" vaporized=""/>
    <tripinfo id="randomCar_1716058282707913482" depart="17.00" departLane="-1408_1" departPos="0.20" departSpeed="0.00" departDelay="0.00" arrival="54.00" arrivalLane="-1531_1" arrivalPos="96.99" arrivalSpeed="14.18" duration="37.00" routeLength="329.56" waitingTime="0.00" waitingCount="0" stopTime="0.00" timeLoss="15.65" rerouteNo="0" devices="tripinfo_randomCar_1716058282707913482" vType="vehicle.dodge.charger_police_2020" speedFactor="1.05" vaporized=""/>
    <tripinfo id="randomCar_1716058282069052576" depart="16.00" departLane="-1624_1" departPos="5.34" departSpeed="0.00" departDelay="0.00" arrival="59.00" arrivalLane="-1662_1" arrivalPos="41.35" arrivalSpeed="6.54" duration="43.00" routeLength="428.26" waitingTime="1.00" waitingCount="1" stopTime="0.00" timeLoss="13.35" rerouteNo="0" devices="tripinfo_randomCar_1716058282069052576" vType="vehicle.dodge.charger_police_2020" speedFactor="1.03" vaporized=""/>
    <tripinfo id="randomCar_1716058283303843174" depart="18.00" departLane="-1456_1" departPos="5.34" departSpeed="0.00" departDelay="0.00" arrival="59.00" arrivalLane="-1549_1" arrivalPos="74.52" arrivalSpeed="5.47" duration="41.00" routeLength="270.17" waitingTime="5.00" waitingCount="1" stopTime="0.00" timeLoss="18.43" rerouteNo="0" devices="tripinfo_randomCar_1716058283303843174" vType="vehicle.dodge.charger_police_2020" speedFactor="0.95" vaporized=""/>
    <tripinfo id="randomCar_1716058282072769599" depart="16.00" departLane="-1421_1" departPos="5.34" departSpeed="0.00" departDelay="0.00" arrival="61.00" arrivalLane="-1655_1" arrivalPos="0.20" arrivalSpeed="11.58" duration="45.00" routeLength="502.96" waitingTime="0.00" waitingCount="0" stopTime="0.00" timeLoss="9.60" rerouteNo="0" devices="tripinfo_randomCar_1716058282072769599" vType="vehicle.dodge.charger_police_2020" speedFactor="1.04" vaporized=""/>
    <tripinfo id="randomCar_1716058282743411548" depart="17.00" departLane="-1472_1" departPos="5.34" departSpeed="0.00" departDelay="0.00" arrival="63.00" arrivalLane="-1605_1" arrivalPos="2.67" arrivalSpeed="9.45" duration="46.00" routeLength="595.09" waitingTime="0.00" waitingCount="0" stopTime="0.00" timeLoss="10.91" rerouteNo="0" devices="tripinfo_randomCar_1716058282743411548" vType="vehicle.dodge.charger_police_2020" speedFactor="0.93" vaporized=""/>
    <tripinfo id="randomCar_1716058281433333805" depart="15.00" departLane="-1658_1" departPos="5.34" departSpeed="0.00" departDelay="0.00" arrival="66.00" arrivalLane="-1613_1" arrivalPos="154.44" arrivalSpeed="12.93" duration="51.00" routeLength="556.79" waitingTime="0.00" waitingCount="0" stopTime="0.00" timeLoss="8.00" rerouteNo="0" devices="tripinfo_randomCar_1716058281433333805" vType="vehicle.dodge.charger_police_2020" speedFactor="0.95" vaporized=""/>
    <tripinfo id="randomCar_1716058282685683641" depart="17.00" departLane="-1666_1" departPos="5.34" departSpeed="0.00" departDelay="0.00" arrival="68.00" arrivalLane="-1624_2" arrivalPos="43.33" arrivalSpeed="14.78" duration="51.00" routeLength="351.25" waitingTime="9.00" waitingCount="1" stopTime="0.00" timeLoss="23.84" rerouteNo="0" devices="tripinfo_randomCar_1716058282685683641" vType="vehicle.dodge.charger_police_2020" speedFactor="1.07" vaporized=""/>
    <tripinfo id="randomCar_1716058283255037682" depart="18.00" departLane="-1507_1" departPos="5.34" departSpeed="0.00" departDelay="0.00" arrival="69.00" arrivalLane="-1588_1" arrivalPos="0.20" arrivalSpeed="15.44" duration="51.00" routeLength="627.23" waitingTime="0.00" waitingCount="0" stopTime="0.00" timeLoss="9.43" rerouteNo="0" devices="tripinfo_randomCar_1716058283255037682" vType="vehicle.dodge.charger_police_2020" speedFactor="1.15" vaporized=""/>
    <tripinfo id="randomCar_1716058283306202825" depart="18.00" departLane="-1566_1" departPos="5.34" departSpeed="0.00" departDelay="0.00" arrival="71.00" arrivalLane="-1413_1" arrivalPos="74.52" arrivalSpeed="14.88" duration="53.00" routeLength="557.11" waitingTime="0.00" waitingCount="0" stopTime="0.00" timeLoss="13.23" rerouteNo="0" devices="tripinfo_randomCar_1716058283306202825" vType="vehicle.dodge.charger_police_2020" speedFactor="1.07" vaporized=""/>
    <tripinfo id="randomCar_1716058283296673322" depart="18.00" departLane="-1598_1" departPos="5.34" departSpeed="0.00" departDelay="0.00" arrival="77.00" arrivalLane="-1646_1" arrivalPos="118.71" arrivalSpeed="23.82" duration="59.00" routeLength="722.18" waitingTime="9.00" waitingCount="1" stopTime="0.00" timeLoss="20.50" rerouteNo="0" devices="tripinfo_randomCar_1716058283296673322" vType="vehicle.dodge.charger_police_2020" speedFactor="1.12" vaporized=""/>
    <tripinfo id="randomCar_1716058283305089748" depart="18.00" departLane="-1587_1" departPos="5.34" departSpeed="0.00" departDelay="0.00" arrival="84.00" arrivalLane="-1472_1" arrivalPos="59.90" arrivalSpeed="11.30" duration="66.00" routeLength="688.84" waitingTime="0.00" waitingCount="0" stopTime="0.00" timeLoss="11.87" rerouteNo="0" devices="tripinfo_randomCar_1716058283305089748" vType="vehicle.dodge.charger_police_2020" speedFactor="0.89" vaporized=""/>
    <tripinfo id="randomCar_1716058282715502125" depart="17.00" departLane="-1615_1" departPos="5.34" departSpeed="0.00" departDelay="0.00" arrival="86.00" arrivalLane="-1483_1" arrivalPos="0.20" arrivalSpeed="5.99" duration="69.00" routeLength="751.87" waitingTime="0.00" waitingCount="0" stopTime="0.00" timeLoss="15.14" rerouteNo="0" devices="tripinfo_randomCar_1716058282715502125" vType="vehicle.dodge.charger_police_2020" speedFactor="1.10" vaporized=""/>
    <tripinfo id="randomCar_1716058283266097453" depart="21.00" departLane="-1408_1" departPos="0.20" departSpeed="0.00" departDelay="3.00" arrival="87.00" arrivalLane="-1643_1" arrivalPos="73.81" arrivalSpeed="14.37" duration="66.00" routeLength="576.63" waitingTime="15.00" waitingCount="2" stopTime="0.00" timeLoss="34.16" rerouteNo="0" devices="tripinfo_randomCar_1716058283266097453" vType="vehicle.dodge.charger_police_2020" speedFactor="1.04" vaporized=""/>
    <tripinfo id="randomCar_1716058283269065092" depart="20.00" departLane="-1653_1" departPos="5.34" departSpeed="0.00" departDelay="2.00" arrival="88.00" arrivalLane="-1568_1" arrivalPos="413.96" arrivalSpeed="13.87" duration="68.00" routeLength="763.61" waitingTime="0.00" waitingCount="0" stopTime="0.00" timeLoss="11.23" rerouteNo="0" devices="tripinfo_randomCar_1716058283269065092" vType="vehicle.dodge.charger_police_2020" speedFactor="1.01" vaporized=""/>
    <tripinfo id="randomCar_1716058283278692893" depart="20.00" departLane="-1486_1" departPos="5.34" departSpeed="0.00" departDelay="2.00" arrival="103.00" arrivalLane="-1505_2" arrivalPos="0.20" arrivalSpeed="4.75" duration="83.00" routeLength="673.65" waitingTime="0.00" waitingCount="0" stopTime="0.00" timeLoss="19.99" rerouteNo="0" devices="tripinfo_randomCar_1716058283278692893" vType="vehicle.dodge.charger_police_2020" speedFactor="0.89" vaporized=""/>
    <tripinfo id="randomCar_1716058283307002109" depart="18.00" departLane="-1646_1" departPos="5.34" departSpeed="0.00" departDelay="0.00" arrival="111.00" arrivalLane="-1505_1" arrivalPos="0.20" arrivalSpeed="5.99" duration="93.00" routeLength="1080.30" waitingTime="0.00" waitingCount="0" stopTime="0.00" timeLoss="22.01" rerouteNo="0" devices="tripinfo_randomCar_1716058283307002109" vType="vehicle.dodge.charger_police_2020" speedFactor="1.01" vaporized=""/>
    <tripinfo id="randomCar_1716058282733774947" depart="17.00" departLane="-1574_1" departPos="5.34" departSpeed="0.00" departDelay="0.00" arrival="112.00" arrivalLane="-1466_1" arrivalPos="53.23" arrivalSpeed="12.63" duration="95.00" routeLength="1065.60" waitingTime="0.00" waitingCount="0" stopTime="0.00" timeLoss="11.22" rerouteNo="0" devices="tripinfo_randomCar_1716058282733774947" vType="vehicle.dodge.charger_police_2020" speedFactor="0.94" vaporized=""/>
    <tripinfo id="randomCar_1716058282050909451" depart="16.00" departLane="-1452_1" departPos="5.34" departSpeed="0.00" departDelay="0.00" arrival="113.00" arrivalLane="-1602_1" arrivalPos="151.23" arrivalSpeed="4.68" duration="97.00" routeLength="1004.76" waitingTime="20.00" waitingCount="1" stopTime="0.00" timeLoss="34.94" rerouteNo="0" devices="tripinfo_randomCar_1716058282050909451" vType="vehicle.dodge.charger_police_2020" speedFactor="1.18" vaporized=""/>
    <tripinfo id="randomCar_1716058283316240018" depart="23.00" departLane="-1653_1" departPos="5.34" departSpeed="0.00" departDelay="5.00" arrival="114.00" arrivalLane="-1555_1" arrivalPos="86.48" arrivalSpeed="12.57" duration="91.00" routeLength="917.71" waitingTime="0.00" waitingCount="0" stopTime="0.00" timeLoss="14.84" rerouteNo="0" devices="tripinfo_randomCar_1716058283316240018" vType="vehicle.dodge.charger_police_2020" speedFactor="0.92" vaporized=""/>
    <tripinfo id="randomCar_1716058282748253748" depart="17.00" departLane="-1619_1" departPos="5.34" departSpeed="0.00" departDelay="0.00" arrival="115.00" arrivalLane="-1569_1" arrivalPos="153.10" arrivalSpeed="14.58" duration="98.00" routeLength="1129.30" waitingTime="0.00" waitingCount="0" stopTime="0.00" timeLoss="29.65" rerouteNo="0" devices="tripinfo_randomCar_1716058282748253748" vType="vehicle.dodge.charger_police_2020" speedFactor="1.12" vaporized=""/>
    <tripinfo id="randomCar_1716058282731194301" depart="17.00" departLane="-1599_1" departPos="5.34" departSpeed="0.00" departDelay="0.00" arrival="116.00" arrivalLane="-1667_1" arrivalPos="0.20" arrivalSpeed="8.66" duration="99.00" routeLength="935.98" waitingTime="10.00" waitingCount="1" stopTime="0.00" timeLoss="35.38" rerouteNo="0" devices="tripinfo_randomCar_1716058282731194301" vType="vehicle.dodge.charger_police_2020" speedFactor="1.15" vaporized=""/>
    <tripinfo id="randomCar_1716058281430880656" depart="15.00" departLane="-1474_1" departPos="5.34" departSpeed="0.00" departDelay="0.00" arrival="118.00" arrivalLane="-1605_1" arrivalPos="2.67" arrivalSpeed="9.78" duration="103.00" routeLength="1102.66" waitingTime="5.00" waitingCount="1" stopTime="0.00" timeLoss="31.15" rerouteNo="0" devices="tripinfo_randomCar_1716058281430880656" vType="vehicle.dodge.charger_police_2020" speedFactor="0.96" vaporized=""/>
    <tripinfo id="randomCar_1716058283308763272" depart="49.00" departLane="-1433_1" departPos="5.34" departSpeed="0.00" departDelay="31.00" arrival="118.00" arrivalLane="-1391_1" arrivalPos="183.09" arrivalSpeed="13.59" duration="69.00" routeLength="746.56" waitingTime="0.00" waitingCount="0" stopTime="0.00" timeLoss="17.74" rerouteNo="0" devices="tripinfo_randomCar_1716058283308763272" vType="vehicle.dodge.charger_police_2020" speedFactor="1.06" vaporized=""/>
    <tripinfo id="randomCar_1716058283315491433" depart="18.00" departLane="-1569_1" departPos="5.34" departSpeed="0.00" departDelay="0.00" arrival="118.00" arrivalLane="-1658_1" arrivalPos="11.96" arrivalSpeed="13.67" duration="100.00" routeLength="981.67" waitingTime="13.00" waitingCount="1" stopTime="0.00" timeLoss="34.24" rerouteNo="0" devices="tripinfo_randomCar_1716058283315491433" vType="vehicle.dodge.charger_police_2020" speedFactor="1.10" vaporized=""/>
    <tripinfo id="randomCar_1716058282071395527" depart="16.00" departLane="-1502_0" departPos="0.20" departSpeed="0.00" departDelay="0.00" arrival="119.00" arrivalLane="-1465_1" arrivalPos="11.38" arrivalSpeed="14.85" duration="103.00" routeLength="1283.97" waitingTime="1.00" waitingCount="1" stopTime="0.00" timeLoss="15.62" rerouteNo="0" devices="tripinfo_randomCar_1716058282071395527" vType="vehicle.dodge.charger_police_2020" speedFactor="1.09" vaporized=""/>
    <tripinfo id="randomCar_1716058283302936593" depart="18.00" departLane="-1466_1" departPos="5.34" departSpeed="0.00" departDelay="0.00" arrival="119.00" arrivalLane="-1556_1" arrivalPos="74.30" arrivalSpeed="12.20" duration="101.00" routeLength="1161.68" waitingTime="0.00" waitingCount="0" stopTime="0.00" timeLoss="12.38" rerouteNo="0" devices="tripinfo_randomCar_1716058283302936593" vType="vehicle.dodge.charger_police_2020" speedFactor="0.97" vaporized=""/>
    <tripinfo id="randomCar_1716058280809608587" depart="14.00" departLane="-1653_1" departPos="5.34" departSpeed="0.00" departDelay="0.00" arrival="124.00" arrivalLane="-1477_1" arrivalPos="41.35" arrivalSpeed="14.49" duration="110.00" routeLength="1328.88" waitingTime="0.00" waitingCount="0" stopTime="0.00" timeLoss="16.81" rerouteNo="0" devices="tripinfo_randomCar_1716058280809608587" vType="vehicle.dodge.charger_police_2020" speedFactor="1.05" vaporized=""/>
    <tripinfo id="randomCar_1716058283276045148" depart="18.00" departLane="-1465_1" departPos="5.34" departSpeed="0.00" departDelay="0.00" arrival="124.00" arrivalLane="-1547_1" arrivalPos="68.69" arrivalSpeed="13.83" duration="106.00" routeLength="1299.51" waitingTime="0.00" waitingCount="0" stopTime="0.00" timeLoss="11.98" rerouteNo="0" devices="tripinfo_randomCar_1716058283276045148" vType="vehicle.dodge.charger_police_2020" speedFactor="1.02" vaporized=""/>
    <tripinfo id="randomCar_1716058283320790124" depart="18.00" departLane="-1597_1" departPos="5.34" departSpeed="0.00" departDelay="0.00" arrival="124.00" arrivalLane="-1596_1" arrivalPos="134.55" arrivalSpeed="13.72" duration="106.00" routeLength="885.22" waitingTime="27.00" waitingCount="2" stopTime="0.00" timeLoss="50.24" rerouteNo="0" devices="tripinfo_randomCar_1716058283320790124" vType="vehicle.dodge.charger_police_2020" speedFactor="1.07" vaporized=""/>
    <tripinfo id="randomCar_1716058282058478794" depart="16.00" departLane="-1557_1" departPos="5.34" departSpeed="0.00" departDelay="0.00" arrival="126.00" arrivalLane="-1576_1" arrivalPos="60.09" arrivalSpeed="13.50" duration="110.00" routeLength="1277.76" waitingTime="0.00" waitingCount="0" stopTime="0.00" timeLoss="15.46" rerouteNo="0" devices="tripinfo_randomCar_1716058282058478794" vType="vehicle.dodge.charger_police_2020" speedFactor="0.99" vaporized=""/>
    <tripinfo id="randomCar_1716058281429506284" depart="15.00" departLane="-1456_1" departPos="5.34" departSpeed="0.00" departDelay="0.00" arrival="127.00" arrivalLane="-1528_1" arrivalPos="130.35" arrivalSpeed="12.51" duration="112.00" routeLength="922.48" waitingTime="3.00" waitingCount="2" stopTime="0.00" timeLoss="29.70" rerouteNo="0" devices="tripinfo_randomCar_1716058281429506284" vType="vehicle.dodge.charger_police_2020" speedFactor="0.92" vaporized=""/>
    <tripinfo id="randomCar_1716058282717492584" depart="17.00" departLane="-1591_1" departPos="5.34" departSpeed="0.00" departDelay="0.00" arrival="128.00" arrivalLane="-1415_0" arrivalPos="87.23" arrivalSpeed="21.72" duration="111.00" routeLength="1225.59" waitingTime="0.00" waitingCount="0" stopTime="0.00" timeLoss="18.07" rerouteNo="0" devices="tripinfo_randomCar_1716058282717492584" vType="vehicle.dodge.charger_police_2020" speedFactor="0.94" vaporized=""/>
    <tripinfo id="randomCar_1716058283287097720" depart="19.00" departLane="-1492_1" departPos="3.51" departSpeed="0.00" departDelay="1.00" arrival="130.00" arrivalLane="-1667_1" arrivalPos="0.20" arrivalSpeed="7.58" duration="111.00" routeLength="904.82" waitingTime="8.00" waitingCount="3" stopTime="0.00" timeLoss="43.50" rerouteNo="0" devices="tripinfo_randomCar_1716058283287097720" vType="vehicle.dodge.charger_police_2020" speedFactor="1.06" vaporized=""/>
    <tripinfo id="randomCar_1716058282699102864" depart="17.00" departLane="-1509_1" departPos="5.34" departSpeed="0.00" departDelay="0.00" arrival="131.00" arrivalLane="-1573_1" arrivalPos="77.57" arrivalSpeed="11.48" duration="114.00" routeLength="1099.14" waitingTime="12.00" waitingCount="1" stopTime="0.00" timeLoss="29.05" rerouteNo="0" devices="tripinfo_randomCar_1716058282699102864" vType="vehicle.dodge.charger_police_2020" speedFactor="1.06" vaporized=""/>
    <tripinfo id="randomCar_1716058282731925786" depart="17.00" departLane="-1525_1" departPos="5.34" departSpeed="0.00" departDelay="0.00" arrival="132.00" arrivalLane="-1433_1" arrivalPos="10.23" arrivalSpeed="22.94" duration="115.00" routeLength="876.72" waitingTime="49.00" waitingCount="1" stopTime="0.00" timeLoss="67.55" rerouteNo="0" devices="tripinfo_randomCar_1716058282731925786" vType="vehicle.dodge.charger_police_2020" speedFactor="1.09" vaporized=""/>
    <tripinfo id="randomCar_1716058282740009419" depart="18.00" departLane="-1609_2" departPos="5.34" departSpeed="0.00" departDelay="1.00" arrival="135.00" arrivalLane="-1474_1" arrivalPos="118.69" arrivalSpeed="18.48" duration="117.00" routeLength="536.75" waitingTime="60.00" waitingCount="1" stopTime="0.00" timeLoss="78.13" rerouteNo="0" devices="tripinfo_randomCar_1716058282740009419" vType="vehicle.dodge.charger_police_2020" speedFactor="0.88" vaporized=""/>
    <tripinfo id="randomCar_1716058283311888208" depart="19.00" departLane="-1511_1" departPos="0.20" departSpeed="0.00" departDelay="1.00" arrival="139.00" arrivalLane="-1649_1" arrivalPos="0.20" arrivalSpeed="7.29" duration="120.00" routeLength="1021.77" waitingTime="21.00" waitingCount="2" stopTime="0.00" timeLoss="43.84" rerouteNo="0" devices="tripinfo_randomCar_1716058283311888208" vType="vehicle.dodge.charger_police_2020" speedFactor="0.93" vaporized=""/>
    <tripinfo id="randomCar_1716058283302010812" depart="18.00" departLane="-1593_2" departPos="5.34" departSpeed="0.00" departDelay="0.00" arrival="140.00" arrivalLane="-1538_1" arrivalPos="52.35" arrivalSpeed="21.21" duration="122.00" routeLength="1383.07" waitingTime="6.00" waitingCount="2" stopTime="0.00" timeLoss="27.45" rerouteNo="0" devices="tripinfo_randomCar_1716058283302010812" vType="vehicle.dodge.charger_police_2020" speedFactor="0.96" vaporized=""/>
    <tripinfo id="randomCar_1716058283262744923" depart="18.00" departLane="-1570_1" departPos="5.34" departSpeed="0.00" departDelay="0.00" arrival="142.00" arrivalLane="-1551_1" arrivalPos="87.30" arrivalSpeed="20.07" duration="124.00" routeLength="1390.44" waitingTime="0.00" waitingCount="0" stopTime="0.00" timeLoss="26.15" rerouteNo="0" devices="tripinfo_randomCar_1716058283262744923" vType="vehicle.dodge.charger_police_2020" speedFactor="1.00" vaporized=""/>
    <tripinfo id="randomCar_1716058283242651438" depart="18.00" departLane="-1455_1" departPos="3.16" departSpeed="0.00" departDelay="0.00" arrival="145.00" arrivalLane="-1616_1" arrivalPos="109.27" arrivalSpeed="7.80" duration="127.00" routeLength="1330.16" waitingTime="0.00" waitingCount="0" stopTime="0.00" timeLoss="28.75" rerouteNo="0" devices="tripinfo_randomCar_1716058283242651438" vType="vehicle.dodge.charger_police_2020" speedFactor="1.00" vaporized=""/>
    <tripinfo id="randomCar_1716058283247306042" depart="18.00" departLane="-1563_1" departPos="5.34" departSpeed="0.00" departDelay="0.00" arrival="147.00" arrivalLane="-1609_1" arrivalPos="60.92" arrivalSpeed="13.72" duration="129.00" routeLength="1056.65" waitingTime="19.00" waitingCount="2" stopTime="0.00" timeLoss="49.05" rerouteNo="0" devices="tripinfo_randomCar_1716058283247306042" vType="vehicle.dodge.charger_police_2020" speedFactor="1.02" vaporized=""/>
    <tripinfo id="randomCar_1716058280811509948" depart="14.00" departLane="-1492_1" departPos="3.51" departSpeed="0.00" departDelay="0.00" arrival="148.00" arrivalLane="-1615_1" arrivalPos="42.90" arrivalSpeed="12.20" duration="134.00" routeLength="987.21" waitingTime="1.00" waitingCount="1" stopTime="0.00" timeLoss="35.62" rerouteNo="0" devices="tripinfo_randomCar_1716058280811509948" vType="vehicle.dodge.charger_police_2020" speedFactor="0.89" vaporized=""/>
    <tripinfo id="randomCar_1716058281442992106" depart="16.00" departLane="-1654_1" departPos="0.20" departSpeed="0.00" departDelay="0.00" arrival="149.00" arrivalLane="-1516_1" arrivalPos="11.62" arrivalSpeed="9.09" duration="133.00" routeLength="692.97" waitingTime="38.00" waitingCount="3" stopTime="0.00" timeLoss="79.84" rerouteNo="0" devices="tripinfo_randomCar_1716058281442992106" vType="vehicle.dodge.charger_police_2020" speedFactor="0.93" vaporized=""/>
    <tripinfo id="randomCar_1716058280189617892" depart="13.00" departLane="-1612_1" departPos="5.34" departSpeed="0.00" departDelay="0.00" arrival="152.00" arrivalLane="-1509_1" arrivalPos="256.85" arrivalSpeed="10.44" duration="139.00" routeLength="1332.93" waitingTime="0.00" waitingCount="0" stopTime="0.00" timeLoss="19.20" rerouteNo="0" devices="tripinfo_randomCar_1716058280189617892" vType="vehicle.dodge.charger_police_2020" speedFactor="0.84" vaporized=""/>
    <tripinfo id="randomCar_1716058282054849369" depart="16.00" departLane="-1551_1" departPos="5.34" departSpeed="0.00" departDelay="0.00" arrival="152.00" arrivalLane="-1593_1" arrivalPos="188.17" arrivalSpeed="16.02" duration="136.00" routeLength="714.93" waitingTime="42.00" waitingCount="4" stopTime="0.00" timeLoss="90.93" rerouteNo="0" devices="tripinfo_randomCar_1716058282054849369" vType="vehicle.dodge.charger_police_2020" speedFactor="1.15" vaporized=""/>
    <tripinfo id="randomCar_1716058282749755017" depart="17.00" departLane="-1492_1" departPos="3.51" departSpeed="0.00" departDelay="0.00" arrival="153.00" arrivalLane="-1554_1" arrivalPos="152.48" arrivalSpeed="12.66" duration="136.00" routeLength="1178.37" waitingTime="2.00" waitingCount="2" stopTime="0.00" timeLoss="38.42" rerouteNo="0" devices="tripinfo_randomCar_1716058282749755017" vType="vehicle.dodge.charger_police_2020" speedFactor="0.93" vaporized=""/>
    <tripinfo id="randomCar_1716058282692912391" depart="17.00" departLane="-1486_1" departPos="5.34" departSpeed="0.00" departDelay="0.00" arrival="154.00" arrivalLane="-1637_1" arrivalPos="51.66" arrivalSpeed="16.23" duration="137.00" routeLength="1422.41" waitingTime="1.00" waitingCount="1" stopTime="0.00" timeLoss="42.13" rerouteNo="0" devices="tripinfo_randomCar_1716058282692912391" vType="vehicle.dodge.charger_police_2020" speedFactor="1.19" vaporized=""/>
    <tripinfo id="randomCar_1716058281437074828" depart="15.00" departLane="-1655_1" departPos="0.20" departSpeed="0.00" departDelay="0.00" arrival="155.00" arrivalLane="-1408_1" arrivalPos="0.20" arrivalSpeed="4.62" duration="140.00" routeLength="769.88" waitingTime="40.00" waitingCount="3" stopTime="0.00" timeLoss="70.77" rerouteNo="0" devices="tripinfo_randomCar_1716058281437074828" vType="vehicle.dodge.charger_police_2020" speedFactor="0.80" vaporized=""/>
    <tripinfo id="randomCar_1716058282740863001" depart="17.00" departLane="-1663_1" departPos="5.34" departSpeed="0.00" departDelay="0.00" arrival="155.00" arrivalLane="-1535_1" arrivalPos="5.26" arrivalSpeed="11.24" duration="138.00" routeLength="1233.67" waitingTime="5.00" waitingCount="1" stopTime="0.00" timeLoss="50.73" rerouteNo="0" devices="tripinfo_randomCar_1716058282740863001" vType="vehicle.dodge.charger_police_2020" speedFactor="0.96" vaporized=""/>
    <tripinfo id="randomCar_1716058282062753306" depart="16.00" departLane="-1497_1" departPos="1.67" departSpeed="0.00" departDelay="0.00" arrival="156.00" arrivalLane="-1476_1" arrivalPos="253.15" arrivalSpeed="13.45" duration="140.00" routeLength="1343.42" waitingTime="2.00" waitingCount="1" stopTime="0.00" timeLoss="36.09" rerouteNo="0" devices="tripinfo_randomCar_1716058282062753306" vType="vehicle.dodge.charger_police_2020" speedFactor="0.97" vaporized=""/>
    <tripinfo id="randomCar_1716058281440258862" depart="15.00" departLane="-1485_1" departPos="0.20" departSpeed="0.00" departDelay="0.00" arrival="157.00" arrivalLane="-1489_0" arrivalPos="0.20" arrivalSpeed="6.36" duration="142.00" routeLength="1709.31" waitingTime="0.00" waitingCount="0" stopTime="0.00" timeLoss="14.05" rerouteNo="0" devices="tripinfo_randomCar_1716058281440258862" vType="vehicle.dodge.charger_police_2020" speedFactor="0.98" vaporized=""/>
    <tripinfo id="randomCar_1716058282738400652" depart="17.00" departLane="-1511_1" departPos="0.20" departSpeed="0.00" departDelay="0.00" arrival="157.00" arrivalLane="-1553_1" arrivalPos="171.89" arrivalSpeed="12.11" duration="140.00" routeLength="1482.30" waitingTime="0.00" waitingCount="0" stopTime="0.00" timeLoss="19.24" rerouteNo="0" devices="tripinfo_randomCar_1716058282738400652" vType="vehicle.dodge.charger_police_2020" speedFactor="0.95" vaporized=""/>
    <tripinfo id="randomCar_1716058282755072008" depart="20.00" departLane="-1424_1" departPos="5.34" departSpeed="0.00" departDelay="3.00" arrival="158.00" arrivalLane="-1524_1" arrivalPos="5.55" arrivalSpeed="12.52" duration="138.00" routeLength="725.93" waitingTime="40.00" waitingCount="4" stopTime="0.00" timeLoss="75.72" rerouteNo="0" devices="tripinfo_randomCar_1716058282755072008" vType="vehicle.dodge.charger_police_2020" speedFactor="0.92" vaporized=""/>
    <tripinfo id="randomCar_1716058283318634068" depart="18.00" departLane="-1508_1" departPos="5.34" departSpeed="0.00" departDelay="0.00" arrival="158.00" arrivalLane="-1568_1" arrivalPos="413.96" arrivalSpeed="13.40" duration="140.00" routeLength="1564.60" waitingTime="2.00" waitingCount="1" stopTime="0.00" timeLoss="22.39" rerouteNo="0" devices="tripinfo_randomCar_1716058283318634068" vType="vehicle.dodge.charger_police_2020" speedFactor="1.00" vaporized=""/>
    <tripinfo id="randomCar_1716058280191735748" depart="14.00" departLane="-1664_1" departPos="5.34" departSpeed="0.00" departDelay="0.00" arrival="159.00" arrivalLane="-1404_1" arrivalPos="117.41" arrivalSpeed="10.78" duration="145.00" routeLength="926.50" waitingTime="17.00" waitingCount="2" stopTime="0.00" timeLoss="55.00" rerouteNo="0" devices="tripinfo_randomCar_1716058280191735748" vType="vehicle.dodge.charger_police_2020" speedFactor="0.83" vaporized=""/>
    <tripinfo id="randomCar_1716058282679770363" depart="17.00" departLane="-1653_1" departPos="5.34" departSpeed="0.00" departDelay="0.00" arrival="159.00" arrivalLane="-1489_0" arrivalPos="0.20" arrivalSpeed="6.66" duration="142.00" routeLength="1728.55" waitingTime="0.00" waitingCount="0" stopTime="0.00" timeLoss="19.37" rerouteNo="0" devices="tripinfo_randomCar_1716058282679770363" vType="vehicle.dodge.charger_police_2020" speedFactor="1.02" vaporized=""/>