<?xml version="1.0" encoding="UTF-8"?>

<!-- generated on 2024-05-20 17:02:22 by Eclipse SUMO GUI Version 1.12.0
<configuration xmlns:xsi="http://www.w3.org/2001/XMLSchema-instance" xsi:noNamespaceSchemaLocation="http://sumo.dlr.de/xsd/sumoConfiguration.xsd">

    <input>
        <net-file value="Adapters/co_simulation/sumo_configuration/ruadapega/output.net.xml"/>
        <route-files value="Adapters/co_simulation/sumo_configuration/ruadapega/carlavtypes.rou.xml,Adapters/co_simulation/sumo_configuration/ruadapega/ruadapega.rou.xml"/>
    </input>

    <output>
        <tripinfo-output value="tripinfo.xml"/>
    </output>

    <traci_server>
        <remote-port value="35237"/>
        <num-clients value="1"/>
    </traci_server>

    <gui_only>
        <gui-settings-file value="Adapters/co_simulation/sumo_configuration/ruadapega/ruadapega.view.xml"/>
    </gui_only>

</configuration>
-->

<tripinfos xmlns:xsi="http://www.w3.org/2001/XMLSchema-instance" xsi:noNamespaceSchemaLocation="http://sumo.dlr.de/xsd/tripinfo_file.xsd">
    <tripinfo id="5010" depart="19.00" departLane="-462_1" departPos="658.02" departSpeed="0.00" departDelay="-1.00" arrival="50.00" arrivalLane="-462_1" arrivalPos="1025.51" arrivalSpeed="13.20" duration="31.00" routeLength="367.49" waitingTime="0.00" waitingCount="0" stopTime="0.00" timeLoss="3.71" rerouteNo="0" devices="tripinfo_5010" vType="vehicle.dodge.charger_police" speedFactor="1.00" vaporized=""/>
    <tripinfo id="5012" depart="40.00" departLane="-462_1" departPos="657.89" departSpeed="0.00" departDelay="-1.00" arrival="70.00" arrivalLane="-462_1" arrivalPos="1025.51" arrivalSpeed="13.40" duration="30.00" routeLength="367.62" waitingTime="0.00" waitingCount="0" stopTime="0.00" timeLoss="3.07" rerouteNo="0" devices="tripinfo_5012" vType="vehicle.dodge.charger_police" speedFactor="1.00" vaporized=""/>
    <tripinfo id="randomCar_1716220994602951621" depart="73.00" departLane="-486_1" departPos="3.65" departSpeed="0.00" departDelay="0.00" arrival="74.00" arrivalLane="-486_1" arrivalPos="3.65" arrivalSpeed="1.55" duration="1.00" routeLength="0.00" waitingTime="0.00" waitingCount="0" stopTime="0.00" timeLoss="0.90" rerouteNo="0" devices="tripinfo_randomCar_1716220994602951621" vType="vehicle.dodge.charger_police_2020" speedFactor="1.08" vaporized=""/>
    <tripinfo id="randomCar_1716220995841027530" depart="75.00" departLane="-525_1" departPos="5.34" departSpeed="0.00" departDelay="0.00" arrival="81.00" arrivalLane="-525_1" arrivalPos="38.73" arrivalSpeed="11.71" duration="6.00" routeLength="33.39" waitingTime="0.00" waitingCount="0" stopTime="0.00" timeLoss="2.84" rerouteNo="0" devices="tripinfo_randomCar_1716220995841027530" vType="vehicle.dodge.charger_police_2020" speedFactor="0.89" vaporized=""/>
    <tripinfo id="0" depart="3.00" departLane="-478_1" departPos="6.47" departSpeed="0.00" departDelay="0.00" arrival="84.00" arrivalLane="-462_1" arrivalPos="1025.51" arrivalSpeed="13.96" duration="81.00" routeLength="1076.23" waitingTime="0.00" waitingCount="0" stopTime="0.00" timeLoss="6.99" rerouteNo="0" devices="tripinfo_0" vType="vehicle.ford.ambulance" speedFactor="1.06" vaporized=""/>
    <tripinfo id="randomCar_1716220994602564970" depart="75.00" departLane="-493_0" departPos="0.20" departSpeed="0.00" departDelay="2.00" arrival="84.00" arrivalLane="-452_0" arrivalPos="65.65" arrivalSpeed="16.68" duration="9.00" routeLength="85.37" waitingTime="0.00" waitingCount="0" stopTime="0.00" timeLoss="5.75" rerouteNo="0" devices="tripinfo_randomCar_1716220994602564970" vType="vehicle.dodge.charger_police_2020" speedFactor="1.01" vaporized=""/>
    <tripinfo id="5011" depart="31.00" departLane="-514_1" departPos="315.03" departSpeed="0.00" departDelay="-1.00" arrival="91.00" arrivalLane="-514_1" arrivalPos="1033.04" arrivalSpeed="12.50" duration="60.00" routeLength="718.01" waitingTime="0.00" waitingCount="0" stopTime="0.00" timeLoss="7.92" rerouteNo="0" devices="tripinfo_5011" vType="vehicle.dodge.charger_police" speedFactor="1.00" vaporized=""/>
    <tripinfo id="randomCar_1716220997085299808" depart="82.00" departLane="-493_0" departPos="0.20" departSpeed="0.00" departDelay="4.00" arrival="92.00" arrivalLane="-486_1" arrivalPos="3.65" arrivalSpeed="6.34" duration="10.00" routeLength="30.08" waitingTime="0.00" waitingCount="0" stopTime="0.00" timeLoss="7.78" rerouteNo="0" devices="tripinfo_randomCar_1716220997085299808" vType="vehicle.dodge.charger_police_2020" speedFactor="1.16" vaporized=""/>
    <tripinfo id="randomCar_1716221002044026265" depart="86.00" departLane="-480_1" departPos="5.34" departSpeed="0.00" departDelay="0.00" arrival="93.00" arrivalLane="-480_1" arrivalPos="54.23" arrivalSpeed="10.94" duration="7.00" routeLength="48.89" waitingTime="0.00" waitingCount="0" stopTime="0.00" timeLoss="2.05" rerouteNo="0" devices="tripinfo_randomCar_1716221002044026265" vType="vehicle.dodge.charger_police_2020" speedFactor="0.85" vaporized=""/>
    <tripinfo id="5013" depart="43.00" departLane="-514_1" departPos="312.19" departSpeed="0.00" departDelay="-1.00" arrival="98.00" arrivalLane="-514_1" arrivalPos="1033.04" arrivalSpeed="13.80" duration="55.00" routeLength="720.85" waitingTime="0.00" waitingCount="0" stopTime="0.00" timeLoss="2.52" rerouteNo="0" devices="tripinfo_5013" vType="vehicle.dodge.charger_police" speedFactor="1.00" vaporized=""/>
    <tripinfo id="randomCar_1716220997081666740" depart="77.00" departLane="-528_1" departPos="5.34" departSpeed="0.00" departDelay="0.00" arrival="102.00" arrivalLane="-479_1" arrivalPos="11.55" arrivalSpeed="12.59" duration="25.00" routeLength="209.55" waitingTime="0.00" waitingCount="0" stopTime="0.00" timeLoss="6.76" rerouteNo="0" devices="tripinfo_randomCar_1716220997081666740" vType="vehicle.dodge.charger_police_2020" speedFactor="0.93" vaporized=""/>
    <tripinfo id="randomCar_1716220996463377763" depart="79.00" departLane="-485_1" departPos="1.75" departSpeed="0.00" departDelay="2.00" arrival="103.00" arrivalLane="-481_0" arrivalPos="0.20" arrivalSpeed="3.27" duration="24.00" routeLength="14.61" waitingTime="17.00" waitingCount="2" stopTime="0.00" timeLoss="22.71" rerouteNo="0" devices="tripinfo_randomCar_1716220996463377763" vType="vehicle.dodge.charger_police_2020" speedFactor="0.99" vaporized=""/>
    <tripinfo id="randomCar_1716221002664109669" depart="95.00" departLane="-483_0" departPos="0.20" departSpeed="0.00" departDelay="9.00" arrival="105.00" arrivalLane="-484_1" arrivalPos="2.17" arrivalSpeed="5.12" duration="10.00" routeLength="42.84" waitingTime="0.00" waitingCount="0" stopTime="0.00" timeLoss="5.32" rerouteNo="0" devices="tripinfo_randomCar_1716221002664109669" vType="vehicle.dodge.charger_police_2020" speedFactor="1.10" vaporized=""/>
    <tripinfo id="randomCar_1716220997703584925" depart="79.00" departLane="-489_1" departPos="2.44" departSpeed="0.00" departDelay="0.00" arrival="106.00" arrivalLane="-493_0" arrivalPos="0.20" arrivalSpeed="5.91" duration="27.00" routeLength="20.53" waitingTime="19.00" waitingCount="1" stopTime="0.00" timeLoss="23.94" rerouteNo="0" devices="tripinfo_randomCar_1716220997703584925" vType="vehicle.dodge.charger_police_2020" speedFactor="0.89" vaporized=""/>
    <tripinfo id="randomCar_1716221008244976237" depart="95.00" departLane="-487_1" departPos="1.43" departSpeed="0.00" departDelay="0.00" arrival="106.00" arrivalLane="-495_0" arrivalPos="0.20" arrivalSpeed="8.32" duration="11.00" routeLength="35.59" waitingTime="2.00" waitingCount="1" stopTime="0.00" timeLoss="6.37" rerouteNo="0" devices="tripinfo_randomCar_1716221008244976237" vType="vehicle.dodge.charger_police_2020" speedFactor="0.98" vaporized=""/>
    <tripinfo id="randomCar_1716220994600964515" depart="73.00" departLane="-511_1" departPos="5.34" departSpeed="0.00" departDelay="0.00" arrival="114.00" arrivalLane="-479_1" arrivalPos="11.55" arrivalSpeed="14.59" duration="41.00" routeLength="304.41" waitingTime="0.00" waitingCount="0" stopTime="0.00" timeLoss="16.19" rerouteNo="0" devices="tripinfo_randomCar_1716220994600964515" vType="vehicle.dodge.charger_police_2020" speedFactor="1.06" vaporized=""/>
    <tripinfo id="randomCar_1716221001424244802" depart="93.00" departLane="-529_1" departPos="5.34" departSpeed="0.00" departDelay="9.00" arrival="119.00" arrivalLane="-480_1" arrivalPos="54.23" arrivalSpeed="13.05" duration="26.00" routeLength="136.05" waitingTime="0.00" waitingCount="0" stopTime="0.00" timeLoss="13.95" rerouteNo="0" devices="tripinfo_randomCar_1716221001424244802" vType="vehicle.dodge.charger_police_2020" speedFactor="1.00" vaporized=""/>
    <tripinfo id="randomCar_1716221007004169772" depart="106.00" departLane="-493_0" departPos="0.20" departSpeed="0.00" departDelay="13.00" arrival="120.00" arrivalLane="-481_0" arrivalPos="0.20" arrivalSpeed="5.58" duration="14.00" routeLength="17.01" waitingTime="4.00" waitingCount="1" stopTime="0.00" timeLoss="11.87" rerouteNo="0" devices="tripinfo_randomCar_1716221007004169772" vType="vehicle.dodge.charger_police_2020" speedFactor="1.03" vaporized=""/>
    <tripinfo id="randomCar_1716220998944216138" depart="102.00" departLane="-482_0" departPos="0.20" departSpeed="0.00" departDelay="21.00" arrival="122.00" arrivalLane="-481_0" arrivalPos="0.20" arrivalSpeed="7.87" duration="20.00" routeLength="38.92" waitingTime="2.00" waitingCount="1" stopTime="0.00" timeLoss="15.94" rerouteNo="0" devices="tripinfo_randomCar_1716220998944216138" vType="vehicle.dodge.charger_police_2020" speedFactor="1.18" vaporized=""/>
    <tripinfo id="randomCar_1716220994601916294" depart="73.00" departLane="-490_1" departPos="1.43" departSpeed="0.00" departDelay="0.00" arrival="127.00" arrivalLane="-493_0" arrivalPos="0.20" arrivalSpeed="8.46" duration="54.00" routeLength="59.10" waitingTime="28.00" waitingCount="1" stopTime="0.00" timeLoss="45.97" rerouteNo="0" devices="tripinfo_randomCar_1716220994601916294" vType="vehicle.dodge.charger_police_2020" speedFactor="0.94" vaporized=""/>
    <tripinfo id="5017" depart="99.00" departLane="-462_1" departPos="661.35" departSpeed="0.00" departDelay="-1.00" arrival="134.00" arrivalLane="-462_1" arrivalPos="1025.51" arrivalSpeed="10.90" duration="35.00" routeLength="364.16" waitingTime="0.00" waitingCount="0" stopTime="0.00" timeLoss="8.62" rerouteNo="0" devices="tripinfo_5017" vType="vehicle.dodge.charger_police" speedFactor="1.00" vaporized=""/>
    <tripinfo id="randomCar_1716221000183403958" depart="85.00" departLane="-455_1" departPos="5.34" departSpeed="0.00" departDelay="3.00" arrival="135.00" arrivalLane="-493_0" arrivalPos="0.20" arrivalSpeed="8.81" duration="50.00" routeLength="207.48" waitingTime="17.00" waitingCount="2" stopTime="0.00" timeLoss="32.75" rerouteNo="0" devices="tripinfo_randomCar_1716221000183403958" vType="vehicle.dodge.charger_police_2020" speedFactor="1.02" vaporized=""/>
    <tripinfo id="randomCar_1716221003903960315" depart="88.00" departLane="-501_1" departPos="5.34" departSpeed="0.00" departDelay="0.00" arrival="139.00" arrivalLane="-482_0" arrivalPos="0.20" arrivalSpeed="9.28" duration="51.00" routeLength="345.53" waitingTime="8.00" waitingCount="1" stopTime="0.00" timeLoss="26.37" rerouteNo="0" devices="tripinfo_randomCar_1716221003903960315" vType="vehicle.dodge.charger_police_2020" speedFactor="1.12" vaporized=""/>
    <tripinfo id="randomCar_1716220995843000560" depart="75.00" departLane="-512_1" departPos="5.34" departSpeed="0.00" departDelay="0.00" arrival="140.00" arrivalLane="-510_1" arrivalPos="62.13" arrivalSpeed="7.06" duration="65.00" routeLength="387.58" waitingTime="18.00" waitingCount="1" stopTime="0.00" timeLoss="30.79" rerouteNo="0" devices="tripinfo_randomCar_1716220995843000560" vType="vehicle.dodge.charger_police_2020" speedFactor="0.86" vaporized=""/>
    <tripinfo id="randomCar_1716221000805762966" depart="84.00" departLane="-525_1" departPos="5.34" departSpeed="0.00" departDelay="0.00" arrival="142.00" arrivalLane="-525_1" arrivalPos="38.73" arrivalSpeed="4.49" duration="58.00" routeLength="33.39" waitingTime="43.00" waitingCount="2" stopTime="0.00" timeLoss="55.69" rerouteNo="0" devices="tripinfo_randomCar_1716221000805762966" vType="vehicle.dodge.charger_police_2020" speedFactor="1.04" vaporized=""/>
    <tripinfo id="randomCar_1716221003284682716" depart="128.00" departLane="-483_0" departPos="0.20" departSpeed="0.00" departDelay="40.00" arrival="147.00" arrivalLane="-501_1" arrivalPos="155.07" arrivalSpeed="5.56" duration="19.00" routeLength="180.29" waitingTime="0.00" waitingCount="0" stopTime="0.00" timeLoss="5.64" rerouteNo="0" devices="tripinfo_randomCar_1716221003284682716" vType="vehicle.dodge.charger_police_2020" speedFactor="1.02" vaporized=""/>
    <tripinfo id="randomCar_1716221000184394220" depart="88.00" departLane="-455_1" departPos="5.34" departSpeed="0.00" departDelay="6.00" arrival="150.00" arrivalLane="-501_1" arrivalPos="155.07" arrivalSpeed="12.76" duration="62.00" routeLength="369.79" waitingTime="16.00" waitingCount="2" stopTime="0.00" timeLoss="32.23" rerouteNo="0" devices="tripinfo_randomCar_1716221000184394220" vType="vehicle.dodge.charger_police_2020" speedFactor="0.97" vaporized=""/>
    <tripinfo id="randomCar_1716220995843545630" depart="138.00" departLane="-491_1" departPos="1.79" departSpeed="0.00" departDelay="62.00" arrival="153.00" arrivalLane="-487_1" arrivalPos="1.43" arrivalSpeed="5.67" duration="15.00" routeLength="42.05" waitingTime="7.00" waitingCount="1" stopTime="0.00" timeLoss="10.59" rerouteNo="0" devices="tripinfo_randomCar_1716220995843545630" vType="vehicle.dodge.charger_police_2020" speedFactor="1.09" vaporized=""/>
    <tripinfo id="randomCar_1716221007002935950" depart="106.00" departLane="-495_0" departPos="0.20" departSpeed="0.00" departDelay="13.00" arrival="154.00" arrivalLane="-455_1" arrivalPos="155.43" arrivalSpeed="12.62" duration="48.00" routeLength="357.86" waitingTime="0.00" waitingCount="0" stopTime="0.00" timeLoss="19.21" rerouteNo="0" devices="tripinfo_randomCar_1716221007002935950" vType="vehicle.dodge.charger_police_2020" speedFactor="0.98" vaporized=""/>
    <tripinfo id="randomCar_1716221008865054003" depart="146.00" departLane="-496_0" departPos="0.20" departSpeed="0.00" departDelay="50.00" arrival="154.00" arrivalLane="-481_0" arrivalPos="0.20" arrivalSpeed="5.97" duration="8.00" routeLength="27.40" waitingTime="0.00" waitingCount="0" stopTime="0.00" timeLoss="4.40" rerouteNo="0" devices="tripinfo_randomCar_1716221008865054003" vType="vehicle.dodge.charger_police_2020" speedFactor="1.02" vaporized=""/>
    <tripinfo id="randomCar_1716221004524648310" depart="90.00" departLane="-519_1" departPos="5.34" departSpeed="0.00" departDelay="0.00" arrival="155.00" arrivalLane="-511_1" arrivalPos="61.95" arrivalSpeed="12.09" duration="65.00" routeLength="216.86" waitingTime="34.00" waitingCount="2" stopTime="0.00" timeLoss="45.13" rerouteNo="0" devices="tripinfo_randomCar_1716221004524648310" vType="vehicle.dodge.charger_police_2020" speedFactor="0.88" vaporized=""/>
    <tripinfo id="randomCar_1716220997084347027" depart="77.00" departLane="-474_1" departPos="5.34" departSpeed="0.00" departDelay="0.00" arrival="158.00" arrivalLane="-485_1" arrivalPos="1.75" arrivalSpeed="7.93" duration="81.00" routeLength="116.14" waitingTime="44.00" waitingCount="3" stopTime="0.00" timeLoss="69.87" rerouteNo="0" devices="tripinfo_randomCar_1716220997084347027" vType="vehicle.dodge.charger_police_2020" speedFactor="0.94" vaporized=""/>
    <tripinfo id="randomCar_1716220999564347404" depart="126.00" departLane="-496_0" departPos="0.20" departSpeed="0.00" departDelay="45.00" arrival="159.00" arrivalLane="-455_1" arrivalPos="155.43" arrivalSpeed="13.20" duration="33.00" routeLength="333.02" waitingTime="0.00" waitingCount="0" stopTime="0.00" timeLoss="7.47" rerouteNo="0" devices="tripinfo_randomCar_1716220999564347404" vType="vehicle.dodge.charger_police_2020" speedFactor="1.01" vaporized=""/>
    <tripinfo id="randomCar_1716221007626209808" depart="108.00" departLane="-485_1" departPos="1.75" departSpeed="0.00" departDelay="14.00" arrival="166.00" arrivalLane="-488_1" arrivalPos="0.20" arrivalSpeed="4.61" duration="58.00" routeLength="48.98" waitingTime="43.00" waitingCount="2" stopTime="0.00" timeLoss="52.66" rerouteNo="0" devices="tripinfo_randomCar_1716221007626209808" vType="vehicle.dodge.charger_police_2020" speedFactor="1.00" vaporized=""/>
    <tripinfo id="randomCar_1716221002042709435" depart="147.00" departLane="-491_1" departPos="1.79" departSpeed="0.00" departDelay="62.00" arrival="167.00" arrivalLane="-483_0" arrivalPos="0.20" arrivalSpeed="6.24" duration="20.00" routeLength="30.91" waitingTime="10.00" waitingCount="1" stopTime="0.00" timeLoss="15.88" rerouteNo="0" devices="tripinfo_randomCar_1716221002042709435" vType="vehicle.dodge.charger_police_2020" speedFactor="0.88" vaporized=""/>
    <tripinfo id="randomCar_1716220998323411617" depart="79.00" departLane="-512_1" departPos="5.34" departSpeed="0.00" departDelay="0.00" arrival="171.00" arrivalLane="-530_1" arrivalPos="53.75" arrivalSpeed="12.25" duration="92.00" routeLength="473.60" waitingTime="24.00" waitingCount="1" stopTime="0.00" timeLoss="52.87" rerouteNo="0" devices="tripinfo_randomCar_1716220998323411617" vType="vehicle.dodge.charger_police_2020" speedFactor="0.92" vaporized=""/>
    <tripinfo id="randomCar_1716221007624632857" depart="157.00" departLane="-481_0" departPos="0.20" departSpeed="0.00" departDelay="63.00" arrival="171.00" arrivalLane="-495_0" arrivalPos="0.20" arrivalSpeed="7.47" duration="14.00" routeLength="44.08" waitingTime="0.00" waitingCount="0" stopTime="0.00" timeLoss="9.47" rerouteNo="0" devices="tripinfo_randomCar_1716221007624632857" vType="vehicle.dodge.charger_police_2020" speedFactor="1.09" vaporized=""/>
    <tripinfo id="randomCar_1716220995842092453" depart="75.00" departLane="-479_1" departPos="5.34" departSpeed="0.00" departDelay="0.00" arrival="176.00" arrivalLane="-488_1" arrivalPos="0.20" arrivalSpeed="4.28" duration="101.00" routeLength="1131.13" waitingTime="0.00" waitingCount="0" stopTime="0.00" timeLoss="13.31" rerouteNo="0" devices="tripinfo_randomCar_1716220995842092453" vType="vehicle.dodge.charger_police_2020" speedFactor="0.94" vaporized=""/>
    <tripinfo id="randomCar_1716221002663334172" depart="143.00" departLane="-496_0" departPos="0.20" departSpeed="0.00" departDelay="57.00" arrival="176.00" arrivalLane="-455_1" arrivalPos="155.43" arrivalSpeed="13.40" duration="33.00" routeLength="333.02" waitingTime="0.00" waitingCount="0" stopTime="0.00" timeLoss="7.98" rerouteNo="0" devices="tripinfo_randomCar_1716221002663334172" vType="vehicle.dodge.charger_police_2020" speedFactor="1.02" vaporized=""/>
    <tripinfo id="randomCar_1716221008865817436" depart="96.00" departLane="-452_0" departPos="5.34" departSpeed="0.00" departDelay="0.00" arrival="176.00" arrivalLane="-483_0" arrivalPos="0.20" arrivalSpeed="5.26" duration="80.00" routeLength="155.27" waitingTime="50.00" waitingCount="3" stopTime="0.00" timeLoss="70.56" rerouteNo="0" devices="tripinfo_randomCar_1716221008865817436" vType="vehicle.dodge.charger_police_2020" speedFactor="0.83" vaporized=""/>
    <tripinfo id="randomCar_1716221008244012725" depart="167.00" departLane="-489_1" departPos="2.44" departSpeed="0.00" departDelay="72.00" arrival="180.00" arrivalLane="-484_1" arrivalPos="2.17" arrivalSpeed="5.50" duration="13.00" routeLength="45.39" waitingTime="1.00" waitingCount="1" stopTime="0.00" timeLoss="8.90" rerouteNo="0" devices="tripinfo_randomCar_1716221008244012725" vType="vehicle.dodge.charger_police_2020" speedFactor="1.15" vaporized=""/>
    <tripinfo id="randomCar_1716221001422643164" depart="84.00" departLane="-463_1" departPos="5.34" departSpeed="0.00" departDelay="0.00" arrival="183.00" arrivalLane="-477_1" arrivalPos="7.60" arrivalSpeed="9.44" duration="99.00" routeLength="503.89" waitingTime="24.00" waitingCount="1" stopTime="0.00" timeLoss="58.69" rerouteNo="0" devices="tripinfo_randomCar_1716221001422643164" vType="vehicle.dodge.charger_police_2020" speedFactor="1.04" vaporized=""/>
    <tripinfo id="randomCar_1716220998322952018" depart="81.00" departLane="-489_1" departPos="2.44" departSpeed="0.00" departDelay="2.00" arrival="184.00" arrivalLane="-487_1" arrivalPos="1.43" arrivalSpeed="3.55" duration="103.00" routeLength="61.85" waitingTime="80.00" waitingCount="5" stopTime="0.00" timeLoss="94.44" rerouteNo="0" devices="tripinfo_randomCar_1716220998322952018" vType="vehicle.dodge.charger_police_2020" speedFactor="0.87" vaporized=""/>
    <tripinfo id="randomCar_1716220995220944110" depart="74.00" departLane="-513_1" departPos="5.34" departSpeed="0.00" departDelay="0.00" arrival="186.00" arrivalLane="-474_1" arrivalPos="38.61" arrivalSpeed="13.19" duration="112.00" routeLength="1214.46" waitingTime="0.00" waitingCount="0" stopTime="0.00" timeLoss="25.85" rerouteNo="0" devices="tripinfo_randomCar_1716220995220944110" vType="vehicle.dodge.charger_police_2020" speedFactor="1.03" vaporized=""/>
    <tripinfo id="randomCar_1716220997701864152" depart="81.00" departLane="-474_1" departPos="5.34" departSpeed="0.00" departDelay="3.00" arrival="186.00" arrivalLane="-455_1" arrivalPos="155.43" arrivalSpeed="14.03" duration="105.00" routeLength="423.66" waitingTime="42.00" waitingCount="3" stopTime="0.00" timeLoss="72.72" rerouteNo="0" devices="tripinfo_randomCar_1716220997701864152" vType="vehicle.dodge.charger_police_2020" speedFactor="1.02" vaporized=""/>
    <tripinfo id="randomCar_1716221004524250558" depart="176.00" departLane="-492_0" departPos="0.20" departSpeed="0.00" departDelay="87.00" arrival="187.00" arrivalLane="-483_0" arrivalPos="0.20" arrivalSpeed="6.86" duration="11.00" routeLength="37.21" waitingTime="0.00" waitingCount="0" stopTime="0.00" timeLoss="6.90" rerouteNo="0" devices="tripinfo_randomCar_1716221004524250558" vType="vehicle.dodge.charger_police_2020" speedFactor="0.94" vaporized=""/>
    <tripinfo id="randomCar_1716221007005076286" depart="94.00" departLane="-462_1" departPos="5.34" departSpeed="0.00" departDelay="0.00" arrival="195.00" arrivalLane="-496_0" arrivalPos="0.20" arrivalSpeed="8.04" duration="101.00" routeLength="1040.35" waitingTime="3.00" waitingCount="1" stopTime="0.00" timeLoss="26.06" rerouteNo="0" devices="tripinfo_randomCar_1716221007005076286" vType="vehicle.dodge.charger_police_2020" speedFactor="1.01" vaporized=""/>
    <tripinfo id="randomCar_1716221002662391149" depart="92.00" departLane="-475_1" departPos="5.34" departSpeed="0.00" departDelay="6.00" arrival="196.00" arrivalLane="-528_1" arrivalPos="41.70" arrivalSpeed="15.20" duration="104.00" routeLength="700.68" waitingTime="3.00" waitingCount="1" stopTime="0.00" timeLoss="59.23" rerouteNo="0" devices="tripinfo_randomCar_1716221002662391149" vType="vehicle.dodge.charger_police_2020" speedFactor="1.17" vaporized=""/>
    <tripinfo id="randomCar_1716220997703204546" depart="78.00" departLane="-477_1" departPos="5.34" departSpeed="0.00" departDelay="0.00" arrival="199.00" arrivalLane="-513_1" arrivalPos="61.35" arrivalSpeed="13.08" duration="121.00" routeLength="885.94" waitingTime="10.00" waitingCount="1" stopTime="0.00" timeLoss="52.76" rerouteNo="0" devices="tripinfo_randomCar_1716220997703204546" vType="vehicle.dodge.charger_police_2020" speedFactor="0.98" vaporized=""/>
    <tripinfo id="randomCar_1716221003284042436" depart="87.00" departLane="-526_1" departPos="5.34" departSpeed="0.00" departDelay="0.00" arrival="201.00" arrivalLane="-519_1" arrivalPos="50.42" arrivalSpeed="9.07" duration="114.00" routeLength="941.58" waitingTime="3.00" waitingCount="1" stopTime="0.00" timeLoss="50.85" rerouteNo="0" devices="tripinfo_randomCar_1716221003284042436" vType="vehicle.dodge.charger_police_2020" speedFactor="1.14" vaporized=""/>
    <tripinfo id="randomCar_1716221005143374074" depart="92.00" departLane="-478_1" departPos="5.34" departSpeed="0.00" departDelay="2.00" arrival="202.00" arrivalLane="-496_0" arrivalPos="0.20" arrivalSpeed="6.55" duration="110.00" routeLength="1097.54" waitingTime="4.00" waitingCount="2" stopTime="0.00" timeLoss="23.52" rerouteNo="0" devices="tripinfo_randomCar_1716221005143374074" vType="vehicle.dodge.charger_police_2020" speedFactor="0.91" vaporized=""/>
    <tripinfo id="randomCar_1716221000185017148" depart="83.00" departLane="-477_1" departPos="5.34" departSpeed="0.00" departDelay="0.00" arrival="204.00" arrivalLane="-480_1" arrivalPos="54.23" arrivalSpeed="13.69" duration="121.00" routeLength="868.24" waitingTime="4.00" waitingCount="1" stopTime="0.00" timeLoss="64.82" rerouteNo="0" devices="tripinfo_randomCar_1716221000185017148" vType="vehicle.dodge.charger_police_2020" speedFactor="1.18" vaporized=""/>
    <tripinfo id="randomCar_1716221003904302432" depart="89.00" departLane="-478_1" departPos="5.34" departSpeed="0.00" departDelay="0.00" arrival="206.00" arrivalLane="-529_1" arrivalPos="11.55" arrivalSpeed="13.22" duration="117.00" routeLength="791.46" waitingTime="1.00" waitingCount="1" stopTime="0.00" timeLoss="57.88" rerouteNo="0" devices="tripinfo_randomCar_1716221003904302432" vType="vehicle.dodge.charger_police_2020" speedFactor="1.02" vaporized=""/>
    <tripinfo id="randomCar_1716221007625400388" depart="102.00" departLane="-478_1" departPos="5.34" departSpeed="0.00" departDelay="8.00" arrival="207.00" arrivalLane="-528_1" arrivalPos="41.70" arrivalSpeed="13.94" duration="105.00" routeLength="773.63" waitingTime="0.00" waitingCount="0" stopTime="0.00" timeLoss="48.53" rerouteNo="0" devices="tripinfo_randomCar_1716221007625400388" vType="vehicle.dodge.charger_police_2020" speedFactor="1.03" vaporized=""/>
    <tripinfo id="randomCar_1716221000805403847" depart="85.00" departLane="-513_1" departPos="5.34" departSpeed="0.00" departDelay="2.00" arrival="209.00" arrivalLane="-485_1" arrivalPos="1.75" arrivalSpeed="10.10" duration="124.00" routeLength="1193.83" waitingTime="4.00" waitingCount="2" stopTime="0.00" timeLoss="43.90" rerouteNo="0" devices="tripinfo_randomCar_1716221000805403847" vType="vehicle.dodge.charger_police_2020" speedFactor="1.09" vaporized=""/>
    <tripinfo id="randomCar_1716221005763790915" depart="192.00" departLane="-494_0" departPos="0.20" departSpeed="0.00" departDelay="101.00" arrival="212.00" arrivalLane="-525_1" arrivalPos="38.73" arrivalSpeed="12.71" duration="20.00" routeLength="129.62" waitingTime="0.00" waitingCount="0" stopTime="0.00" timeLoss="7.58" rerouteNo="0" devices="tripinfo_randomCar_1716221005763790915" vType="vehicle.dodge.charger_police_2020" speedFactor="1.02" vaporized=""/>
    <tripinfo id="randomCar_1716221008245678194" depart="95.00" departLane="-526_1" departPos="5.34" departSpeed="0.00" departDelay="0.00" arrival="212.00" arrivalLane="-493_0" arrivalPos="0.20" arrivalSpeed="7.92" duration="117.00" routeLength="1067.69" waitingTime="7.00" waitingCount="1" stopTime="0.00" timeLoss="38.44" rerouteNo="0" devices="tripinfo_randomCar_1716221008245678194" vType="vehicle.dodge.charger_police_2020" speedFactor="1.00" vaporized=""/>
    <tripinfo id="randomCar_1716221008246086096" depart="96.00" departLane="-480_1" departPos="5.34" departSpeed="0.00" departDelay="1.00" arrival="217.00" arrivalLane="-495_0" arrivalPos="0.20" arrivalSpeed="8.61" duration="121.00" routeLength="1209.04" waitingTime="0.00" waitingCount="0" stopTime="0.00" timeLoss="35.96" rerouteNo="0" devices="tripinfo_randomCar_1716221008246086096" vType="vehicle.dodge.charger_police_2020" speedFactor="1.04" vaporized=""/>
    <tripinfo id="randomCar_1716221000802945589" depart="86.00" departLane="-478_1" departPos="5.34" departSpeed="0.00" departDelay="3.00" arrival="220.00" arrivalLane="-455_1" arrivalPos="155.43" arrivalSpeed="14.83" duration="134.00" routeLength="1430.56" waitingTime="4.00" waitingCount="1" stopTime="0.00" timeLoss="38.23" rerouteNo="0" devices="tripinfo_randomCar_1716221000802945589" vType="vehicle.dodge.charger_police_2020" speedFactor="1.10" vaporized=""/>
    <tripinfo id="randomCar_1716221003283166189" depart="95.00" departLane="-530_1" departPos="5.34" departSpeed="0.00" departDelay="8.00" arrival="223.00" arrivalLane="-483_0" arrivalPos="0.20" arrivalSpeed="7.05" duration="128.00" routeLength="1241.26" waitingTime="0.00" waitingCount="0" stopTime="0.00" timeLoss="36.13" rerouteNo="0" devices="tripinfo_randomCar_1716221003283166189" vType="vehicle.dodge.charger_police_2020" speedFactor="1.00" vaporized=""/>
    <tripinfo id="randomCar_1716221000804569039" depart="83.00" departLane="-528_1" departPos="5.34" departSpeed="0.00" departDelay="0.00" arrival="225.00" arrivalLane="-486_1" arrivalPos="3.65" arrivalSpeed="10.67" duration="142.00" routeLength="1361.33" waitingTime="0.00" waitingCount="0" stopTime="0.00" timeLoss="42.92" rerouteNo="0" devices="tripinfo_randomCar_1716221000804569039" vType="vehicle.dodge.charger_police_2020" speedFactor="1.03" vaporized=""/>
    <tripinfo id="randomCar_1716221005142148497" depart="90.00" departLane="-511_1" departPos="5.34" departSpeed="0.00" departDelay="0.00" arrival="226.00" arrivalLane="-495_0" arrivalPos="0.20" arrivalSpeed="7.21" duration="136.00" routeLength="1262.29" waitingTime="3.00" waitingCount="1" stopTime="0.00" timeLoss="32.38" rerouteNo="0" devices="tripinfo_randomCar_1716221005142148497" vType="vehicle.dodge.charger_police_2020" speedFactor="0.91" vaporized=""/>
    <tripinfo id="randomCar_1716221004523394269" depart="89.00" departLane="-513_1" departPos="5.34" departSpeed="0.00" departDelay="0.00" arrival="227.00" arrivalLane="-500_1" arrivalPos="65.65" arrivalSpeed="15.60" duration="138.00" routeLength="1334.63" waitingTime="2.00" waitingCount="2" stopTime="0.00" timeLoss="42.87" rerouteNo="0" devices="tripinfo_randomCar_1716221004523394269" vType="vehicle.dodge.charger_police_2020" speedFactor="0.99" vaporized=""/>