<?xml version="1.0" encoding="UTF-8"?>

<!-- generated on 2024-05-26 16:39:34 by Eclipse SUMO GUI Version 1.19.0
<configuration xmlns:xsi="http://www.w3.org/2001/XMLSchema-instance" xsi:noNamespaceSchemaLocation="http://sumo.dlr.de/xsd/sumoConfiguration.xsd">

    <input>
        <net-file value="Adapters/co_simulation/sumo_configuration/simple-map/UA.net.xml"/>
        <route-files value="Adapters/co_simulation/sumo_configuration/simple-map/carlavtypes.rou.xml,Adapters/co_simulation/sumo_configuration/simple-map/simple-map.rou.xml"/>
    </input>

    <output>
        <tripinfo-output value="tripinfo.xml"/>
    </output>

    <traci_server>
        <remote-port value="52855"/>
        <num-clients value="1"/>
    </traci_server>

    <gui_only>
        <gui-settings-file value="Adapters/co_simulation/sumo_configuration/simple-map/simple-map.view.xml"/>
        <quit-on-end value="true"/>
    </gui_only>

</configuration>
-->

<tripinfos xmlns:xsi="http://www.w3.org/2001/XMLSchema-instance" xsi:noNamespaceSchemaLocation="http://sumo.dlr.de/xsd/tripinfo_file.xsd">
    <tripinfo id="randomCar_1716737986994155646" depart="19.00" departLane="-1588_1" departPos="0.20" departSpeed="0.00" departDelay="0.00" arrival="42.00" arrivalLane="-1434_1" arrivalPos="0.20" arrivalSpeed="13.35" duration="23.00" routeLength="224.27" waitingTime="0.00" waitingCount="0" stopTime="0.00" timeLoss="5.56" rerouteNo="0" devices="tripinfo_randomCar_1716737986994155646" vType="vehicle.dodge.charger_police_2020" speedFactor="1.01" vaporized=""/>
    <tripinfo id="0" depart="3.00" departLane="-1466_1" departPos="5.34" departSpeed="0.00" departDelay="0.00" arrival="63.00" arrivalLane="-1427_1" arrivalPos="658.50" arrivalSpeed="13.70" duration="60.00" routeLength="796.66" waitingTime="0.00" waitingCount="0" stopTime="0.00" timeLoss="5.79" rerouteNo="0" devices="tripinfo_0" vType="vehicle.dodge.charger_police_2020" speedFactor="1.06" vaporized=""/>
    <tripinfo id="randomBike_1716738033678805109" depart="94.00" departLane="-1518_1" departPos="1.94" departSpeed="0.00" departDelay="0.00" arrival="111.00" arrivalLane="-1587_1" arrivalPos="10.24" arrivalSpeed="5.50" duration="17.00" routeLength="75.69" waitingTime="0.00" waitingCount="0" stopTime="0.00" timeLoss="2.77" rerouteNo="0" devices="tripinfo_randomBike_1716738033678805109" vType="vehicle.gazelle.omafiets" speedFactor="1.00" vaporized=""/>
    <tripinfo id="randomCar_1716737987625306869" depart="20.00" departLane="-1445_1" departPos="5.34" departSpeed="0.00" departDelay="0.00" arrival="117.00" arrivalLane="-1538_1" arrivalPos="52.33" arrivalSpeed="18.04" duration="97.00" routeLength="800.51" waitingTime="19.00" waitingCount="1" stopTime="0.00" timeLoss="41.43" rerouteNo="0" devices="tripinfo_randomCar_1716737987625306869" vType="vehicle.dodge.charger_police_2020" speedFactor="1.03" vaporized=""/>
    <tripinfo id="randomBike_1716738033681985930" depart="94.00" departLane="-1603_1" departPos="0.20" departSpeed="0.00" departDelay="0.00" arrival="128.00" arrivalLane="-1552_2" arrivalPos="15.11" arrivalSpeed="4.51" duration="34.00" routeLength="147.56" waitingTime="0.00" waitingCount="0" stopTime="0.00" timeLoss="4.41" rerouteNo="0" devices="tripinfo_randomBike_1716738033681985930" vType="vehicle.gazelle.omafiets" speedFactor="0.90" vaporized=""/>
    <tripinfo id="randomCar_1716737986991767598" depart="19.00" departLane="-1483_1" departPos="0.21" departSpeed="0.00" departDelay="0.00" arrival="135.00" arrivalLane="-1581_1" arrivalPos="110.35" arrivalSpeed="12.63" duration="116.00" routeLength="1245.62" waitingTime="0.00" waitingCount="0" stopTime="0.00" timeLoss="14.95" rerouteNo="0" devices="tripinfo_randomCar_1716737986991767598" vType="vehicle.dodge.charger_police_2020" speedFactor="1.00" vaporized=""/>
    <personinfo id="randomPedestrian_1716738039254268648" depart="103.00" type="DEFAULT_PEDTYPE" speedFactor="0.88">
        <walk depart="103.00" departPos="0.00" arrival="170.00" arrivalPos="0.00" duration="67.00" routeLength="60.51" timeLoss="17.74" maxSpeed="1.23"/>
    </personinfo>
    <tripinfo id="randomCar_1716737987629183508" depart="20.00" departLane="-1408_1" departPos="0.20" departSpeed="0.00" departDelay="0.00" arrival="178.00" arrivalLane="-1651_1" arrivalPos="174.89" arrivalSpeed="13.61" duration="158.00" routeLength="1927.37" waitingTime="2.00" waitingCount="1" stopTime="0.00" timeLoss="26.68" rerouteNo="0" devices="tripinfo_randomCar_1716737987629183508" vType="vehicle.dodge.charger_police_2020" speedFactor="1.05" vaporized=""/>
    <tripinfo id="randomBike_1716738033683507769" depart="94.00" departLane="-1496_1" departPos="1.30" departSpeed="0.00" departDelay="0.00" arrival="182.00" arrivalLane="-1560_1" arrivalPos="211.16" arrivalSpeed="5.96" duration="88.00" routeLength="517.23" waitingTime="0.00" waitingCount="0" stopTime="0.00" timeLoss="5.97" rerouteNo="0" devices="tripinfo_randomBike_1716738033683507769" vType="vehicle.gazelle.omafiets" speedFactor="1.14" vaporized=""/>
    <tripinfo id="randomMotorcycle_1716738028824074593" depart="87.00" departLane="-1473_1" departPos="2.14" departSpeed="0.00" departDelay="0.00" arrival="189.00" arrivalLane="-1537_1" arrivalPos="45.63" arrivalSpeed="12.32" duration="102.00" routeLength="1242.39" waitingTime="0.00" waitingCount="0" stopTime="0.00" timeLoss="23.04" rerouteNo="0" devices="tripinfo_randomMotorcycle_1716738028824074593" vType="vehicle.kawasaki.ninja" speedFactor="0.99" vaporized=""/>
    <tripinfo id="randomCar_1716737986990460974" depart="19.00" departLane="-1488_0" departPos="0.20" departSpeed="0.00" departDelay="0.00" arrival="212.00" arrivalLane="-1578_1" arrivalPos="0.11" arrivalSpeed="5.12" duration="193.00" routeLength="1534.13" waitingTime="40.00" waitingCount="2" stopTime="0.00" timeLoss="70.77" rerouteNo="0" devices="tripinfo_randomCar_1716737986990460974" vType="vehicle.dodge.charger_police_2020" speedFactor="0.84" vaporized=""/>
    <tripinfo id="randomCar_1716737987615417516" depart="20.00" departLane="-1462_1" departPos="5.34" departSpeed="0.00" departDelay="0.00" arrival="215.00" arrivalLane="-1643_1" arrivalPos="73.81" arrivalSpeed="14.98" duration="195.00" routeLength="1846.92" waitingTime="0.00" waitingCount="0" stopTime="0.00" timeLoss="82.74" rerouteNo="0" devices="tripinfo_randomCar_1716737987615417516" vType="vehicle.dodge.charger_police_2020" speedFactor="1.09" vaporized=""/>
    <tripinfo id="randomMotorcycle_1716738029287153165" depart="87.00" departLane="-1624_1" departPos="2.14" departSpeed="0.00" departDelay="0.00" arrival="234.00" arrivalLane="-1461_1" arrivalPos="595.11" arrivalSpeed="12.85" duration="147.00" routeLength="1636.69" waitingTime="0.00" waitingCount="0" stopTime="0.00" timeLoss="19.42" rerouteNo="0" devices="tripinfo_randomMotorcycle_1716738029287153165" vType="vehicle.kawasaki.ninja" speedFactor="0.93" vaporized=""/>
    <tripinfo id="randomCar_1716737986994485319" depart="20.00" departLane="-1562_1" departPos="0.42" departSpeed="0.00" departDelay="0.00" arrival="260.00" arrivalLane="-1456_1" arrivalPos="34.14" arrivalSpeed="11.12" duration="240.00" routeLength="2498.84" waitingTime="0.00" waitingCount="0" stopTime="0.00" timeLoss="24.67" rerouteNo="0" devices="tripinfo_randomCar_1716737986994485319" vType="vehicle.dodge.charger_police_2020" speedFactor="0.86" vaporized=""/>
    <tripinfo id="randomBike_1716738033463953179" depart="94.00" departLane="-1657_1" departPos="0.48" departSpeed="0.00" departDelay="0.00" arrival="271.00" arrivalLane="-1649_1" arrivalPos="0.20" arrivalSpeed="4.61" duration="177.00" routeLength="641.71" waitingTime="26.00" waitingCount="1" stopTime="0.00" timeLoss="40.94" rerouteNo="0" devices="tripinfo_randomBike_1716738033463953179" vType="vehicle.gazelle.omafiets" speedFactor="0.85" vaporized=""/>
    <tripinfo id="randomMotorcycle_1716738029276215577" depart="87.00" departLane="-1631_1" departPos="2.14" departSpeed="0.00" departDelay="0.00" arrival="276.00" arrivalLane="-1604_1" arrivalPos="6.27" arrivalSpeed="11.47" duration="189.00" routeLength="1669.16" waitingTime="23.00" waitingCount="1" stopTime="0.00" timeLoss="67.51" rerouteNo="0" devices="tripinfo_randomMotorcycle_1716738029276215577" vType="vehicle.kawasaki.ninja" speedFactor="1.01" vaporized=""/>
    <tripinfo id="randomMotorcycle_1716738029283485621" depart="87.00" departLane="-1510_1" departPos="0.94" departSpeed="0.00" departDelay="0.00" arrival="284.00" arrivalLane="-1596_1" arrivalPos="134.55" arrivalSpeed="12.79" duration="197.00" routeLength="1079.57" waitingTime="99.00" waitingCount="2" stopTime="0.00" timeLoss="122.29" rerouteNo="0" devices="tripinfo_randomMotorcycle_1716738029283485621" vType="vehicle.kawasaki.ninja" speedFactor="1.07" vaporized=""/>
    <tripinfo id="randomMotorcycle_1716738029279907884" depart="87.00" departLane="-1505_1" departPos="0.20" departSpeed="0.00" departDelay="0.00" arrival="307.00" arrivalLane="-1502_0" arrivalPos="0.20" arrivalSpeed="4.24" duration="220.00" routeLength="2321.05" waitingTime="0.00" waitingCount="0" stopTime="0.00" timeLoss="31.40" rerouteNo="0" devices="tripinfo_randomMotorcycle_1716738029279907884" vType="vehicle.kawasaki.ninja" speedFactor="0.90" vaporized=""/>
    <tripinfo id="randomMotorcycle_1716738029288849351" depart="87.00" departLane="-1498_0" departPos="0.20" departSpeed="0.00" departDelay="0.00" arrival="327.00" arrivalLane="-1391_1" arrivalPos="183.09" arrivalSpeed="9.91" duration="240.00" routeLength="1609.43" waitingTime="44.00" waitingCount="1" stopTime="0.00" timeLoss="85.99" rerouteNo="0" devices="tripinfo_randomMotorcycle_1716738029288849351" vType="vehicle.kawasaki.ninja" speedFactor="0.77" vaporized=""/>
    <tripinfo id="randomBike_1716738033677680603" depart="94.00" departLane="-1415_0" departPos="1.94" departSpeed="0.00" departDelay="0.00" arrival="336.00" arrivalLane="-1622_1" arrivalPos="88.61" arrivalSpeed="5.66" duration="242.00" routeLength="1367.72" waitingTime="0.00" waitingCount="0" stopTime="0.00" timeLoss="16.81" rerouteNo="0" devices="tripinfo_randomBike_1716738033677680603" vType="vehicle.gazelle.omafiets" speedFactor="1.10" vaporized=""/>
    <tripinfo id="randomMotorcycle_1716738029278197980" depart="87.00" departLane="-1530_1" departPos="2.14" departSpeed="0.00" departDelay="0.00" arrival="352.00" arrivalLane="-1576_1" arrivalPos="60.08" arrivalSpeed="10.62" duration="265.00" routeLength="2258.91" waitingTime="1.00" waitingCount="1" stopTime="0.00" timeLoss="49.38" rerouteNo="0" devices="tripinfo_randomMotorcycle_1716738029278197980" vType="vehicle.kawasaki.ninja" speedFactor="0.83" vaporized=""/>
    <tripinfo id="randomMotorcycle_1716738029285390236" depart="87.00" departLane="-1606_1" departPos="2.14" departSpeed="0.00" departDelay="0.00" arrival="388.00" arrivalLane="-1477_1" arrivalPos="41.34" arrivalSpeed="10.38" duration="301.00" routeLength="1905.14" waitingTime="0.00" waitingCount="0" stopTime="0.00" timeLoss="149.60" rerouteNo="0" devices="tripinfo_randomMotorcycle_1716738029285390236" vType="vehicle.kawasaki.ninja" speedFactor="0.90" vaporized=""/>
    <tripinfo id="randomCar_1716737986993387911" depart="19.00" departLane="-1650_1" departPos="5.34" departSpeed="0.00" departDelay="0.00" arrival="425.00" arrivalLane="-1656_2" arrivalPos="1.57" arrivalSpeed="12.99" duration="406.00" routeLength="2743.11" waitingTime="100.00" waitingCount="2" stopTime="0.00" timeLoss="225.52" rerouteNo="0" devices="tripinfo_randomCar_1716737986993387911" vType="vehicle.dodge.charger_police_2020" speedFactor="1.08" vaporized=""/>
</tripinfos>
