<?xml version="1.0" encoding="UTF-8"?>

<!-- generated on 2024-05-24 17:43:02 by Eclipse SUMO GUI Version 1.12.0
<configuration xmlns:xsi="http://www.w3.org/2001/XMLSchema-instance" xsi:noNamespaceSchemaLocation="http://sumo.dlr.de/xsd/sumoConfiguration.xsd">

    <input>
        <net-file value="Adapters/co_simulation/sumo_configuration/simple-map/UA.net.xml"/>
        <route-files value="Adapters/co_simulation/sumo_configuration/simple-map/carlavtypes.rou.xml,Adapters/co_simulation/sumo_configuration/simple-map/simple-map.rou.xml"/>
    </input>

    <output>
        <tripinfo-output value="tripinfo.xml"/>
    </output>

    <traci_server>
        <remote-port value="57371"/>
        <num-clients value="1"/>
    </traci_server>

    <gui_only>
        <gui-settings-file value="Adapters/co_simulation/sumo_configuration/simple-map/simple-map.view.xml"/>
        <quit-on-end value="true"/>
    </gui_only>

</configuration>
-->

<tripinfos xmlns:xsi="http://www.w3.org/2001/XMLSchema-instance" xsi:noNamespaceSchemaLocation="http://sumo.dlr.de/xsd/tripinfo_file.xsd">
    <tripinfo id="0" depart="3.00" departLane="-1466_1" departPos="5.34" departSpeed="0.00" departDelay="0.00" arrival="24.00" arrivalLane="-1427_1" arrivalPos="96.64" arrivalSpeed="13.62" duration="21.00" routeLength="234.80" waitingTime="0.00" waitingCount="0" stopTime="0.00" timeLoss="4.05" rerouteNo="0" devices="tripinfo_0" vType="vehicle.dodge.charger_police_2020" speedFactor="1.06" vaporized="traci"/>
    <tripinfo id="randomCar_1716568988028358492" depart="8.00" departLane="-1506_1" departPos="5.34" departSpeed="0.00" departDelay="0.00" arrival="24.00" arrivalLane="-1629_1" arrivalPos="9.39" arrivalSpeed="12.51" duration="16.00" routeLength="150.93" waitingTime="0.00" waitingCount="0" stopTime="0.00" timeLoss="3.42" rerouteNo="0" devices="tripinfo_randomCar_1716568988028358492" vType="vehicle.dodge.charger_police_2020" speedFactor="0.94" vaporized="traci"/>
    <tripinfo id="randomCar_1716568988035000082" depart="8.00" departLane="-1505_1" departPos="0.20" departSpeed="0.00" departDelay="0.00" arrival="24.00" arrivalLane="-1525_1" arrivalPos="40.09" arrivalSpeed="12.75" duration="16.00" routeLength="137.85" waitingTime="0.00" waitingCount="0" stopTime="0.00" timeLoss="4.50" rerouteNo="0" devices="tripinfo_randomCar_1716568988035000082" vType="vehicle.dodge.charger_police_2020" speedFactor="1.01" vaporized="traci"/>
    <tripinfo id="randomCar_1716568988039000576" depart="8.00" departLane="-1529_1" departPos="5.34" departSpeed="0.00" departDelay="0.00" arrival="24.00" arrivalLane="-1614_1" arrivalPos="58.56" arrivalSpeed="9.01" duration="16.00" routeLength="132.48" waitingTime="0.00" waitingCount="0" stopTime="0.00" timeLoss="3.54" rerouteNo="0" devices="tripinfo_randomCar_1716568988039000576" vType="vehicle.dodge.charger_police_2020" speedFactor="1.08" vaporized="traci"/>
    <tripinfo id="randomCar_1716568988044091268" depart="9.00" departLane="-1557_1" departPos="5.34" departSpeed="0.00" departDelay="0.00" arrival="24.00" arrivalLane="-1557_1" arrivalPos="163.20" arrivalSpeed="13.89" duration="15.00" routeLength="157.86" waitingTime="0.00" waitingCount="0" stopTime="0.00" timeLoss="4.53" rerouteNo="0" devices="tripinfo_randomCar_1716568988044091268" vType="vehicle.dodge.charger_police_2020" speedFactor="1.20" vaporized="traci"/>
    <tripinfo id="randomCar_1716568988646417349" depart="9.00" departLane="-1434_1" departPos="0.20" departSpeed="0.00" departDelay="0.00" arrival="24.00" arrivalLane="-1589_1" arrivalPos="44.59" arrivalSpeed="11.48" duration="15.00" routeLength="91.38" waitingTime="0.00" waitingCount="0" stopTime="0.00" timeLoss="2.66" rerouteNo="0" devices="tripinfo_randomCar_1716568988646417349" vType="vehicle.dodge.charger_police_2020" speedFactor="0.84" vaporized="traci"/>
    <tripinfo id="randomCar_1716568988648111346" depart="9.00" departLane="-1539_1" departPos="5.34" departSpeed="0.00" departDelay="0.00" arrival="24.00" arrivalLane="-1473_1" arrivalPos="28.25" arrivalSpeed="21.20" duration="15.00" routeLength="191.13" waitingTime="0.00" waitingCount="0" stopTime="0.00" timeLoss="4.25" rerouteNo="0" devices="tripinfo_randomCar_1716568988648111346" vType="vehicle.dodge.charger_police_2020" speedFactor="1.00" vaporized="traci"/>
    <tripinfo id="randomCar_1716568988649281145" depart="9.00" departLane="-1501_0" departPos="0.20" departSpeed="0.00" departDelay="0.00" arrival="24.00" arrivalLane="-1663_1" arrivalPos="26.70" arrivalSpeed="14.66" duration="15.00" routeLength="150.24" waitingTime="0.00" waitingCount="0" stopTime="0.00" timeLoss="4.11" rerouteNo="0" devices="tripinfo_randomCar_1716568988649281145" vType="vehicle.dodge.charger_police_2020" speedFactor="1.08" vaporized="traci"/>
    <tripinfo id="randomCar_1716568988650532143" depart="9.00" departLane="-1623_1" departPos="5.34" departSpeed="0.00" departDelay="0.00" arrival="24.00" arrivalLane="-1623_1" arrivalPos="151.11" arrivalSpeed="13.62" duration="15.00" routeLength="145.77" waitingTime="0.00" waitingCount="0" stopTime="0.00" timeLoss="3.62" rerouteNo="0" devices="tripinfo_randomCar_1716568988650532143" vType="vehicle.dodge.charger_police_2020" speedFactor="1.01" vaporized="traci"/>
    <tripinfo id="randomCar_1716568988651657341" depart="9.00" departLane="-1615_1" departPos="5.34" departSpeed="0.00" departDelay="0.00" arrival="24.00" arrivalLane="-1504_1" arrivalPos="0.71" arrivalSpeed="4.98" duration="15.00" routeLength="85.30" waitingTime="0.00" waitingCount="0" stopTime="0.00" timeLoss="5.86" rerouteNo="0" devices="tripinfo_randomCar_1716568988651657341" vType="vehicle.dodge.charger_police_2020" speedFactor="1.01" vaporized="traci"/>
</tripinfos>
