<?xml version="1.0" encoding="UTF-8"?>

<!-- generated on 2024-05-18 18:55:04 by Eclipse SUMO GUI Version 1.12.0
<configuration xmlns:xsi="http://www.w3.org/2001/XMLSchema-instance" xsi:noNamespaceSchemaLocation="http://sumo.dlr.de/xsd/sumoConfiguration.xsd">

    <input>
        <net-file value="Adapters/co_simulation/sumo_configuration/simple-map/UA.net.xml"/>
        <route-files value="Adapters/co_simulation/sumo_configuration/simple-map/carlavtypes.rou.xml,Adapters/co_simulation/sumo_configuration/simple-map/simple-map.rou.xml"/>
    </input>

    <output>
        <tripinfo-output value="tripinfo.xml"/>
    </output>

    <traci_server>
        <remote-port value="48225"/>
        <num-clients value="1"/>
    </traci_server>

    <gui_only>
        <gui-settings-file value="Adapters/co_simulation/sumo_configuration/simple-map/simple-map.view.xml"/>
        <quit-on-end value="true"/>
    </gui_only>

</configuration>
-->

<tripinfos xmlns:xsi="http://www.w3.org/2001/XMLSchema-instance" xsi:noNamespaceSchemaLocation="http://sumo.dlr.de/xsd/tripinfo_file.xsd">
    <tripinfo id="0" depart="3.00" departLane="-1466_1" departPos="5.34" departSpeed="0.00" departDelay="0.00" arrival="12.00" arrivalLane="-1465_1" arrivalPos="11.38" arrivalSpeed="13.75" duration="9.00" routeLength="73.18" waitingTime="0.00" waitingCount="0" stopTime="0.00" timeLoss="3.49" rerouteNo="0" devices="tripinfo_0" vType="vehicle.dodge.charger_police_2020" speedFactor="1.06" vaporized=""/>
    <tripinfo id="randomCar_1716054943984460692" depart="64.00" departLane="-1485_1" departPos="0.20" departSpeed="0.00" departDelay="0.00" arrival="70.00" arrivalLane="-1655_1" arrivalPos="0.20" arrivalSpeed="9.50" duration="6.00" routeLength="25.83" waitingTime="0.00" waitingCount="0" stopTime="0.00" timeLoss="3.28" rerouteNo="0" devices="tripinfo_randomCar_1716054943984460692" vType="vehicle.dodge.charger_police_2020" speedFactor="1.02" vaporized=""/>
    <tripinfo id="randomCar_1716054943838921846" depart="63.00" departLane="-1532_1" departPos="5.34" departSpeed="0.00" departDelay="1.00" arrival="74.00" arrivalLane="-1532_1" arrivalPos="107.18" arrivalSpeed="10.37" duration="11.00" routeLength="101.84" waitingTime="0.00" waitingCount="0" stopTime="0.00" timeLoss="3.85" rerouteNo="0" devices="tripinfo_randomCar_1716054943838921846" vType="vehicle.dodge.charger_police_2020" speedFactor="1.04" vaporized=""/>
    <tripinfo id="randomCar_1716054942582040025" depart="59.00" departLane="-1649_1" departPos="0.20" departSpeed="0.00" departDelay="0.00" arrival="76.00" arrivalLane="-1541_1" arrivalPos="0.20" arrivalSpeed="6.35" duration="17.00" routeLength="136.27" waitingTime="0.00" waitingCount="0" stopTime="0.00" timeLoss="4.45" rerouteNo="0" devices="tripinfo_randomCar_1716054942582040025" vType="vehicle.dodge.charger_police_2020" speedFactor="1.01" vaporized=""/>
    <tripinfo id="randomCar_1716054943949012479" depart="63.00" departLane="-1517_1" departPos="5.34" departSpeed="0.00" departDelay="0.00" arrival="79.00" arrivalLane="-1588_1" arrivalPos="0.20" arrivalSpeed="6.56" duration="16.00" routeLength="98.99" waitingTime="0.00" waitingCount="0" stopTime="0.00" timeLoss="6.94" rerouteNo="0" devices="tripinfo_randomCar_1716054943949012479" vType="vehicle.dodge.charger_police_2020" speedFactor="1.02" vaporized=""/>
    <tripinfo id="randomCar_1716054944031659143" depart="64.00" departLane="-1512_1" departPos="0.20" departSpeed="0.00" departDelay="0.00" arrival="79.00" arrivalLane="-1584_1" arrivalPos="5.82" arrivalSpeed="10.70" duration="15.00" routeLength="92.97" waitingTime="0.00" waitingCount="0" stopTime="0.00" timeLoss="4.58" rerouteNo="0" devices="tripinfo_randomCar_1716054944031659143" vType="vehicle.dodge.charger_police_2020" speedFactor="1.00" vaporized=""/>
    <tripinfo id="randomCar_1716054944038491065" depart="64.00" departLane="-1493_1" departPos="0.20" departSpeed="0.00" departDelay="0.00" arrival="79.00" arrivalLane="-1489_0" arrivalPos="0.20" arrivalSpeed="3.80" duration="15.00" routeLength="3.98" waitingTime="13.00" waitingCount="1" stopTime="0.00" timeLoss="14.57" rerouteNo="0" devices="tripinfo_randomCar_1716054944038491065" vType="vehicle.dodge.charger_police_2020" speedFactor="0.96" vaporized=""/>
    <tripinfo id="randomCar_1716054943824600500" depart="61.00" departLane="-1609_2" departPos="5.34" departSpeed="0.00" departDelay="0.00" arrival="99.00" arrivalLane="-1618_1" arrivalPos="128.84" arrivalSpeed="14.95" duration="38.00" routeLength="301.89" waitingTime="5.00" waitingCount="1" stopTime="0.00" timeLoss="16.72" rerouteNo="0" devices="tripinfo_randomCar_1716054943824600500" vType="vehicle.dodge.charger_police_2020" speedFactor="1.09" vaporized=""/>
    <tripinfo id="randomCar_1716054943848836078" depart="62.00" departLane="-1627_2" departPos="5.34" departSpeed="0.00" departDelay="0.00" arrival="109.00" arrivalLane="-1581_1" arrivalPos="110.35" arrivalSpeed="13.75" duration="47.00" routeLength="408.29" waitingTime="5.00" waitingCount="1" stopTime="0.00" timeLoss="16.28" rerouteNo="0" devices="tripinfo_randomCar_1716054943848836078" vType="vehicle.dodge.charger_police_2020" speedFactor="1.02" vaporized=""/>
    <tripinfo id="randomCar_1716054943932287525" depart="66.00" departLane="-1593_2" departPos="5.34" departSpeed="0.00" departDelay="3.00" arrival="112.00" arrivalLane="-1482_1" arrivalPos="0.33" arrivalSpeed="2.88" duration="46.00" routeLength="467.34" waitingTime="0.00" waitingCount="0" stopTime="0.00" timeLoss="12.91" rerouteNo="0" devices="tripinfo_randomCar_1716054943932287525" vType="vehicle.dodge.charger_police_2020" speedFactor="1.06" vaporized=""/>
    <tripinfo id="randomCar_1716054943966995236" depart="64.00" departLane="-1394_1" departPos="5.34" departSpeed="0.00" departDelay="0.00" arrival="112.00" arrivalLane="-1433_1" arrivalPos="10.23" arrivalSpeed="20.89" duration="48.00" routeLength="530.51" waitingTime="0.00" waitingCount="0" stopTime="0.00" timeLoss="15.39" rerouteNo="0" devices="tripinfo_randomCar_1716054943966995236" vType="vehicle.dodge.charger_police_2020" speedFactor="1.12" vaporized=""/>
    <tripinfo id="randomCar_1716054943835456335" depart="61.00" departLane="-1610_1" departPos="5.34" departSpeed="0.00" departDelay="0.00" arrival="114.00" arrivalLane="-1455_1" arrivalPos="3.16" arrivalSpeed="6.18" duration="53.00" routeLength="556.12" waitingTime="0.00" waitingCount="0" stopTime="0.00" timeLoss="8.25" rerouteNo="0" devices="tripinfo_randomCar_1716054943835456335" vType="vehicle.dodge.charger_police_2020" speedFactor="0.91" vaporized=""/>
    <tripinfo id="randomCar_1716054944058631629" depart="68.00" departLane="-1595_1" departPos="5.34" departSpeed="0.00" departDelay="4.00" arrival="116.00" arrivalLane="-1533_1" arrivalPos="68.71" arrivalSpeed="14.49" duration="48.00" routeLength="460.58" waitingTime="4.00" waitingCount="1" stopTime="0.00" timeLoss="16.78" rerouteNo="0" devices="tripinfo_randomCar_1716054944058631629" vType="vehicle.dodge.charger_police_2020" speedFactor="1.07" vaporized=""/>
    <tripinfo id="randomCar_1716054944060288435" depart="67.00" departLane="-1538_1" departPos="5.34" departSpeed="0.00" departDelay="3.00" arrival="116.00" arrivalLane="-1552_2" arrivalPos="15.12" arrivalSpeed="9.73" duration="49.00" routeLength="111.76" waitingTime="27.00" waitingCount="2" stopTime="0.00" timeLoss="38.18" rerouteNo="0" devices="tripinfo_randomCar_1716054944060288435" vType="vehicle.dodge.charger_police_2020" speedFactor="0.84" vaporized=""/>
    <tripinfo id="randomCar_1716054943829374216" depart="61.00" departLane="-1433_1" departPos="5.34" departSpeed="0.00" departDelay="0.00" arrival="119.00" arrivalLane="-1588_1" arrivalPos="0.20" arrivalSpeed="7.05" duration="58.00" routeLength="368.60" waitingTime="9.00" waitingCount="1" stopTime="0.00" timeLoss="28.84" rerouteNo="0" devices="tripinfo_randomCar_1716054943829374216" vType="vehicle.dodge.charger_police_2020" speedFactor="0.99" vaporized=""/>
    <tripinfo id="randomCar_1716054944059459932" depart="67.00" departLane="-1591_1" departPos="5.34" departSpeed="0.00" departDelay="3.00" arrival="122.00" arrivalLane="-1437_1" arrivalPos="34.36" arrivalSpeed="12.54" duration="55.00" routeLength="293.59" waitingTime="12.00" waitingCount="2" stopTime="0.00" timeLoss="30.82" rerouteNo="0" devices="tripinfo_randomCar_1716054944059459932" vType="vehicle.dodge.charger_police_2020" speedFactor="1.00" vaporized=""/>
    <tripinfo id="randomCar_1716054943897449014" depart="68.00" departLane="-1648_1" departPos="0.25" departSpeed="0.00" departDelay="5.00" arrival="125.00" arrivalLane="-1638_1" arrivalPos="190.89" arrivalSpeed="12.73" duration="57.00" routeLength="703.15" waitingTime="0.00" waitingCount="0" stopTime="0.00" timeLoss="11.09" rerouteNo="0" devices="tripinfo_randomCar_1716054943897449014" vType="vehicle.dodge.charger_police_2020" speedFactor="0.92" vaporized=""/>
    <tripinfo id="randomCar_1716054943830690820" depart="61.00" departLane="-1637_2" departPos="5.34" departSpeed="0.00" departDelay="0.00" arrival="127.00" arrivalLane="-1553_1" arrivalPos="171.89" arrivalSpeed="12.69" duration="66.00" routeLength="664.46" waitingTime="0.00" waitingCount="0" stopTime="0.00" timeLoss="14.03" rerouteNo="0" devices="tripinfo_randomCar_1716054943830690820" vType="vehicle.dodge.charger_police_2020" speedFactor="1.01" vaporized=""/>
    <tripinfo id="randomCar_1716054943910039654" depart="63.00" departLane="-1419_1" departPos="5.34" departSpeed="0.00" departDelay="0.00" arrival="127.00" arrivalLane="-1651_1" arrivalPos="174.89" arrivalSpeed="12.45" duration="64.00" routeLength="618.07" waitingTime="0.00" waitingCount="0" stopTime="0.00" timeLoss="13.95" rerouteNo="0" devices="tripinfo_randomCar_1716054943910039654" vType="vehicle.dodge.charger_police_2020" speedFactor="0.94" vaporized=""/>
    <tripinfo id="randomCar_1716054944021250810" depart="64.00" departLane="-1619_1" departPos="5.34" departSpeed="0.00" departDelay="0.00" arrival="131.00" arrivalLane="-1394_1" arrivalPos="288.75" arrivalSpeed="15.37" duration="67.00" routeLength="784.62" waitingTime="0.00" waitingCount="0" stopTime="0.00" timeLoss="18.79" rerouteNo="0" devices="tripinfo_randomCar_1716054944021250810" vType="vehicle.dodge.charger_police_2020" speedFactor="1.18" vaporized=""/>
    <tripinfo id="randomCar_1716054943914539268" depart="63.00" departLane="-1654_1" departPos="0.20" departSpeed="0.00" departDelay="0.00" arrival="132.00" arrivalLane="-1587_1" arrivalPos="10.23" arrivalSpeed="9.56" duration="69.00" routeLength="569.35" waitingTime="7.00" waitingCount="2" stopTime="0.00" timeLoss="26.85" rerouteNo="0" devices="tripinfo_randomCar_1716054943914539268" vType="vehicle.dodge.charger_police_2020" speedFactor="0.98" vaporized=""/>
    <tripinfo id="randomCar_1716054943912858063" depart="63.00" departLane="-1615_1" departPos="5.34" departSpeed="0.00" departDelay="0.00" arrival="134.00" arrivalLane="-1523_2" arrivalPos="66.81" arrivalSpeed="12.25" duration="71.00" routeLength="699.31" waitingTime="0.00" waitingCount="0" stopTime="0.00" timeLoss="11.67" rerouteNo="0" devices="tripinfo_randomCar_1716054943912858063" vType="vehicle.dodge.charger_police_2020" speedFactor="0.95" vaporized=""/>
    <tripinfo id="randomCar_1716054944057921727" depart="64.00" departLane="-1645_1" departPos="5.34" departSpeed="0.00" departDelay="0.00" arrival="134.00" arrivalLane="-1597_1" arrivalPos="29.37" arrivalSpeed="9.40" duration="70.00" routeLength="552.40" waitingTime="21.00" waitingCount="1" stopTime="0.00" timeLoss="38.65" rerouteNo="0" devices="tripinfo_randomCar_1716054944057921727" vType="vehicle.dodge.charger_police_2020" speedFactor="1.10" vaporized=""/>
    <tripinfo id="randomCar_1716054943937989743" depart="63.00" departLane="-1583_1" departPos="0.20" departSpeed="0.00" departDelay="0.00" arrival="138.00" arrivalLane="-1573_1" arrivalPos="77.57" arrivalSpeed="10.77" duration="75.00" routeLength="622.85" waitingTime="0.00" waitingCount="0" stopTime="0.00" timeLoss="17.71" rerouteNo="0" devices="tripinfo_randomCar_1716054943937989743" vType="vehicle.dodge.charger_police_2020" speedFactor="0.98" vaporized=""/>
    <tripinfo id="randomCar_1716054944004741757" depart="64.00" departLane="-1510_1" departPos="0.93" departSpeed="0.00" departDelay="0.00" arrival="138.00" arrivalLane="-1536_1" arrivalPos="7.71" arrivalSpeed="24.92" duration="74.00" routeLength="969.90" waitingTime="0.00" waitingCount="0" stopTime="0.00" timeLoss="15.55" rerouteNo="0" devices="tripinfo_randomCar_1716054944004741757" vType="vehicle.dodge.charger_police_2020" speedFactor="1.14" vaporized=""/>
    <tripinfo id="randomCar_1716054944030463839" depart="64.00" departLane="-1439_1" departPos="0.20" departSpeed="0.00" departDelay="0.00" arrival="138.00" arrivalLane="-1432_1" arrivalPos="132.51" arrivalSpeed="9.21" duration="74.00" routeLength="661.97" waitingTime="0.00" waitingCount="0" stopTime="0.00" timeLoss="14.17" rerouteNo="0" devices="tripinfo_randomCar_1716054944030463839" vType="vehicle.dodge.charger_police_2020" speedFactor="0.91" vaporized=""/>
    <tripinfo id="randomCar_1716054943822696094" depart="61.00" departLane="-1529_1" departPos="5.34" departSpeed="0.00" departDelay="0.00" arrival="141.00" arrivalLane="-1616_1" arrivalPos="109.27" arrivalSpeed="7.38" duration="80.00" routeLength="578.67" waitingTime="1.00" waitingCount="1" stopTime="0.00" timeLoss="20.52" rerouteNo="0" devices="tripinfo_randomCar_1716054943822696094" vType="vehicle.dodge.charger_police_2020" speedFactor="0.97" vaporized=""/>
    <tripinfo id="randomCar_1716054943847398773" depart="62.00" departLane="-1462_1" departPos="5.34" departSpeed="0.00" departDelay="0.00" arrival="142.00" arrivalLane="-1419_1" arrivalPos="86.08" arrivalSpeed="15.76" duration="80.00" routeLength="1110.34" waitingTime="0.00" waitingCount="0" stopTime="0.00" timeLoss="10.51" rerouteNo="0" devices="tripinfo_randomCar_1716054943847398773" vType="vehicle.dodge.charger_police_2020" speedFactor="1.17" vaporized=""/>
    <tripinfo id="randomCar_1716054943892065097" depart="63.00" departLane="-1587_1" departPos="5.34" departSpeed="0.00" departDelay="0.00" arrival="143.00" arrivalLane="-1630_1" arrivalPos="19.31" arrivalSpeed="14.82" duration="80.00" routeLength="593.67" waitingTime="7.00" waitingCount="1" stopTime="0.00" timeLoss="43.72" rerouteNo="0" devices="tripinfo_randomCar_1716054943892065097" vType="vehicle.dodge.charger_police_2020" speedFactor="1.13" vaporized=""/>
    <tripinfo id="randomCar_1716054943993912622" depart="64.00" departLane="-1505_1" departPos="0.20" departSpeed="0.00" departDelay="0.00" arrival="144.00" arrivalLane="-1434_1" arrivalPos="0.20" arrivalSpeed="10.53" duration="80.00" routeLength="1003.21" waitingTime="0.00" waitingCount="0" stopTime="0.00" timeLoss="20.88" rerouteNo="0" devices="tripinfo_randomCar_1716054943993912622" vType="vehicle.dodge.charger_police_2020" speedFactor="1.11" vaporized=""/>
    <tripinfo id="randomCar_1716054944001190246" depart="64.00" departLane="-1578_1" departPos="0.10" departSpeed="0.00" departDelay="0.00" arrival="147.00" arrivalLane="-1628_1" arrivalPos="30.67" arrivalSpeed="9.77" duration="83.00" routeLength="570.40" waitingTime="8.00" waitingCount="1" stopTime="0.00" timeLoss="26.28" rerouteNo="0" devices="tripinfo_randomCar_1716054944001190246" vType="vehicle.dodge.charger_police_2020" speedFactor="0.73" vaporized=""/>
    <tripinfo id="randomCar_1716054944012028180" depart="64.00" departLane="-1624_2" departPos="5.34" departSpeed="0.00" departDelay="0.00" arrival="149.00" arrivalLane="-1532_1" arrivalPos="107.18" arrivalSpeed="13.71" duration="85.00" routeLength="900.75" waitingTime="0.00" waitingCount="0" stopTime="0.00" timeLoss="16.49" rerouteNo="0" devices="tripinfo_randomCar_1716054944012028180" vType="vehicle.dodge.charger_police_2020" speedFactor="1.04" vaporized=""/>
    <tripinfo id="randomCar_1716054943941065253" depart="63.00" departLane="-1576_1" departPos="5.34" departSpeed="0.00" departDelay="0.00" arrival="154.00" arrivalLane="-1499_0" arrivalPos="0.20" arrivalSpeed="9.98" duration="91.00" routeLength="1164.60" waitingTime="0.00" waitingCount="0" stopTime="0.00" timeLoss="22.89" rerouteNo="0" devices="tripinfo_randomCar_1716054943941065253" vType="vehicle.dodge.charger_police_2020" speedFactor="1.25" vaporized=""/>
    <tripinfo id="randomCar_1716054943891081893" depart="63.00" departLane="-1476_1" departPos="5.34" departSpeed="0.00" departDelay="0.00" arrival="155.00" arrivalLane="-1556_1" arrivalPos="74.30" arrivalSpeed="13.80" duration="92.00" routeLength="1103.58" waitingTime="0.00" waitingCount="0" stopTime="0.00" timeLoss="15.69" rerouteNo="0" devices="tripinfo_randomCar_1716054943891081893" vType="vehicle.dodge.charger_police_2020" speedFactor="1.08" vaporized=""/>
    <tripinfo id="randomCar_1716054943925349803" depart="63.00" departLane="-1548_1" departPos="5.34" departSpeed="0.00" departDelay="0.00" arrival="155.00" arrivalLane="-1653_2" arrivalPos="7.71" arrivalSpeed="15.04" duration="92.00" routeLength="812.88" waitingTime="6.00" waitingCount="3" stopTime="0.00" timeLoss="42.12" rerouteNo="0" devices="tripinfo_randomCar_1716054943925349803" vType="vehicle.dodge.charger_police_2020" speedFactor="1.27" vaporized=""/>
    <tripinfo id="randomCar_1716054943870299527" depart="62.00" departLane="-1580_1" departPos="5.34" departSpeed="0.00" departDelay="0.00" arrival="157.00" arrivalLane="-1530_2" arrivalPos="66.11" arrivalSpeed="10.40" duration="95.00" routeLength="381.85" waitingTime="53.00" waitingCount="1" stopTime="0.00" timeLoss="63.17" rerouteNo="0" devices="tripinfo_randomCar_1716054943870299527" vType="vehicle.dodge.charger_police_2020" speedFactor="0.94" vaporized=""/>
    <tripinfo id="randomCar_1716054943845961969" depart="62.00" departLane="-1614_1" departPos="5.34" departSpeed="0.00" departDelay="0.00" arrival="160.00" arrivalLane="-1600_1" arrivalPos="31.26" arrivalSpeed="11.71" duration="98.00" routeLength="851.81" waitingTime="0.00" waitingCount="0" stopTime="0.00" timeLoss="13.44" rerouteNo="0" devices="tripinfo_randomCar_1716054943845961969" vType="vehicle.dodge.charger_police_2020" speedFactor="0.85" vaporized=""/>
    <tripinfo id="randomCar_1716054944025133022" depart="64.00" departLane="-1547_1" departPos="5.34" departSpeed="0.00" departDelay="0.00" arrival="162.00" arrivalLane="-1559_1" arrivalPos="0.56" arrivalSpeed="5.97" duration="98.00" routeLength="500.59" waitingTime="33.00" waitingCount="4" stopTime="0.00" timeLoss="61.36" rerouteNo="0" devices="tripinfo_randomCar_1716054944025133022" vType="vehicle.dodge.charger_police_2020" speedFactor="1.08" vaporized=""/>
    <tripinfo id="randomCar_1716054943965221331" depart="64.00" departLane="-1556_2" departPos="5.34" departSpeed="0.00" departDelay="0.00" arrival="167.00" arrivalLane="-1597_1" arrivalPos="29.37" arrivalSpeed="10.86" duration="103.00" routeLength="978.51" waitingTime="0.00" waitingCount="0" stopTime="0.00" timeLoss="17.65" rerouteNo="0" devices="tripinfo_randomCar_1716054943965221331" vType="vehicle.dodge.charger_police_2020" speedFactor="0.82" vaporized=""/>
    <tripinfo id="randomCar_1716054943922524194" depart="65.00" departLane="-1462_1" departPos="5.34" departSpeed="0.00" departDelay="2.00" arrival="169.00" arrivalLane="-1599_1" arrivalPos="63.52" arrivalSpeed="15.26" duration="104.00" routeLength="1250.05" waitingTime="2.00" waitingCount="1" stopTime="0.00" timeLoss="21.83" rerouteNo="0" devices="tripinfo_randomCar_1716054943922524194" vType="vehicle.dodge.charger_police_2020" speedFactor="1.14" vaporized=""/>
    <tripinfo id="randomCar_1716054943877733451" depart="62.00" departLane="-1456_1" departPos="5.34" departSpeed="0.00" departDelay="0.00" arrival="176.00" arrivalLane="-1525_1" arrivalPos="45.95" arrivalSpeed="14.12" duration="114.00" routeLength="518.92" waitingTime="35.00" waitingCount="3" stopTime="0.00" timeLoss="74.22" rerouteNo="0" devices="tripinfo_randomCar_1716054943877733451" vType="vehicle.dodge.charger_police_2020" speedFactor="1.02" vaporized=""/>
    <tripinfo id="randomCar_1716054943828060711" depart="61.00" departLane="-1601_1" departPos="5.34" departSpeed="0.00" departDelay="0.00" arrival="177.00" arrivalLane="-1644_1" arrivalPos="59.90" arrivalSpeed="11.95" duration="116.00" routeLength="667.74" waitingTime="48.00" waitingCount="1" stopTime="0.00" timeLoss="64.99" rerouteNo="0" devices="tripinfo_randomCar_1716054943828060711" vType="vehicle.dodge.charger_police_2020" speedFactor="0.94" vaporized=""/>
    <tripinfo id="randomCar_1716054944021877812" depart="68.00" departLane="-1462_1" departPos="5.34" departSpeed="0.00" departDelay="4.00" arrival="177.00" arrivalLane="-1632_1" arrivalPos="41.07" arrivalSpeed="13.51" duration="109.00" routeLength="1277.01" waitingTime="5.00" waitingCount="2" stopTime="0.00" timeLoss="22.40" rerouteNo="0" devices="tripinfo_randomCar_1716054944021877812" vType="vehicle.dodge.charger_police_2020" speedFactor="1.08" vaporized=""/>
</tripinfos>
