<?xml version="1.0" encoding="UTF-8"?>

<!-- generated on 2024-05-27 15:36:12 by Eclipse SUMO GUI Version 1.12.0
<configuration xmlns:xsi="http://www.w3.org/2001/XMLSchema-instance" xsi:noNamespaceSchemaLocation="http://sumo.dlr.de/xsd/sumoConfiguration.xsd">

    <input>
        <net-file value="Adapters/co_simulation/sumo_configuration/simple-map/UA.net.xml"/>
        <route-files value="Adapters/co_simulation/sumo_configuration/simple-map/carlavtypes.rou.xml,Adapters/co_simulation/sumo_configuration/simple-map/simple-map.rou.xml"/>
    </input>

    <output>
        <tripinfo-output value="tripinfo.xml"/>
    </output>

    <traci_server>
        <remote-port value="57873"/>
        <num-clients value="1"/>
    </traci_server>

    <gui_only>
        <gui-settings-file value="Adapters/co_simulation/sumo_configuration/simple-map/simple-map.view.xml"/>
        <quit-on-end value="true"/>
    </gui_only>

</configuration>
-->

<tripinfos xmlns:xsi="http://www.w3.org/2001/XMLSchema-instance" xsi:noNamespaceSchemaLocation="http://sumo.dlr.de/xsd/tripinfo_file.xsd">
    <tripinfo id="0" depart="3.00" departLane="-1466_1" departPos="5.34" departSpeed="0.00" departDelay="0.00" arrival="63.00" arrivalLane="-1427_1" arrivalPos="658.50" arrivalSpeed="14.10" duration="60.00" routeLength="796.66" waitingTime="0.00" waitingCount="0" stopTime="0.00" timeLoss="5.81" rerouteNo="0" devices="tripinfo_0" vType="vehicle.dodge.charger_police_2020" speedFactor="1.06" vaporized=""/>
    <tripinfo id="randomCar_1716820659109655144" depart="136.00" departLane="-1653_1" departPos="5.34" departSpeed="0.00" departDelay="0.00" arrival="144.00" arrivalLane="-1656_2" arrivalPos="1.57" arrivalSpeed="6.56" duration="8.00" routeLength="38.02" waitingTime="0.00" waitingCount="0" stopTime="0.00" timeLoss="5.12" rerouteNo="0" devices="tripinfo_randomCar_1716820659109655144" vType="vehicle.dodge.charger_police_2020" speedFactor="0.96" vaporized=""/>
    <tripinfo id="randomCar_1716820659045793618" depart="136.00" departLane="-1542_1" departPos="1.25" departSpeed="0.00" departDelay="0.00" arrival="153.00" arrivalLane="-1536_1" arrivalPos="7.78" arrivalSpeed="6.83" duration="17.00" routeLength="61.60" waitingTime="3.00" waitingCount="1" stopTime="0.00" timeLoss="10.76" rerouteNo="0" devices="tripinfo_randomCar_1716820659045793618" vType="vehicle.dodge.charger_police_2020" speedFactor="1.03" vaporized=""/>
    <tripinfo id="randomCar_1716820659653631811" depart="137.00" departLane="-1504_1" departPos="5.34" departSpeed="0.00" departDelay="0.00" arrival="156.00" arrivalLane="-1510_1" arrivalPos="0.94" arrivalSpeed="9.55" duration="19.00" routeLength="143.71" waitingTime="0.00" waitingCount="0" stopTime="0.00" timeLoss="6.77" rerouteNo="0" devices="tripinfo_randomCar_1716820659653631811" vType="vehicle.dodge.charger_police_2020" speedFactor="1.07" vaporized=""/>
    <tripinfo id="randomCar_1716820659764245237" depart="137.00" departLane="-1597_1" departPos="5.34" departSpeed="0.00" departDelay="0.00" arrival="163.00" arrivalLane="-1472_1" arrivalPos="59.90" arrivalSpeed="12.36" duration="26.00" routeLength="267.06" waitingTime="0.00" waitingCount="0" stopTime="0.00" timeLoss="4.70" rerouteNo="0" devices="tripinfo_randomCar_1716820659764245237" vType="vehicle.dodge.charger_police_2020" speedFactor="0.97" vaporized=""/>
    <tripinfo id="randomCar_1716820657794936596" depart="134.00" departLane="-1408_1" departPos="0.20" departSpeed="0.00" departDelay="0.00" arrival="168.00" arrivalLane="-1598_1" arrivalPos="99.49" arrivalSpeed="12.57" duration="34.00" routeLength="382.09" waitingTime="0.00" waitingCount="0" stopTime="0.00" timeLoss="4.23" rerouteNo="0" devices="tripinfo_randomCar_1716820657794936596" vType="vehicle.dodge.charger_police_2020" speedFactor="0.97" vaporized=""/>
    <tripinfo id="randomCar_1716820659760204854" depart="137.00" departLane="-1642_1" departPos="5.34" departSpeed="0.00" departDelay="0.00" arrival="168.00" arrivalLane="-1581_1" arrivalPos="110.35" arrivalSpeed="13.34" duration="31.00" routeLength="316.94" waitingTime="0.00" waitingCount="0" stopTime="0.00" timeLoss="6.40" rerouteNo="0" devices="tripinfo_randomCar_1716820659760204854" vType="vehicle.dodge.charger_police_2020" speedFactor="0.98" vaporized=""/>
    <tripinfo id="randomCar_1716820659687792865" depart="140.00" departLane="-1533_1" departPos="5.34" departSpeed="0.00" departDelay="3.00" arrival="169.00" arrivalLane="-1622_1" arrivalPos="88.61" arrivalSpeed="12.89" duration="29.00" routeLength="291.03" waitingTime="0.00" waitingCount="0" stopTime="0.00" timeLoss="6.14" rerouteNo="0" devices="tripinfo_randomCar_1716820659687792865" vType="vehicle.dodge.charger_police_2020" speedFactor="0.98" vaporized=""/>
    <tripinfo id="randomCar_1716820659721299021" depart="139.00" departLane="-1605_1" departPos="2.68" departSpeed="0.00" departDelay="2.00" arrival="172.00" arrivalLane="-1539_1" arrivalPos="6.82" arrivalSpeed="7.79" duration="33.00" routeLength="44.29" waitingTime="19.00" waitingCount="2" stopTime="0.00" timeLoss="28.28" rerouteNo="0" devices="tripinfo_randomCar_1716820659721299021" vType="vehicle.dodge.charger_police_2020" speedFactor="1.07" vaporized=""/>
    <tripinfo id="randomCar_1716820659656228200" depart="150.00" departLane="-1488_0" departPos="0.20" departSpeed="0.00" departDelay="13.00" arrival="177.00" arrivalLane="-1664_2" arrivalPos="10.22" arrivalSpeed="11.22" duration="27.00" routeLength="263.95" waitingTime="0.00" waitingCount="0" stopTime="0.00" timeLoss="4.74" rerouteNo="0" devices="tripinfo_randomCar_1716820659656228200" vType="vehicle.dodge.charger_police_2020" speedFactor="0.87" vaporized=""/>
    <tripinfo id="randomCar_1716820659114274724" depart="136.00" departLane="-1557_1" departPos="5.34" departSpeed="0.00" departDelay="0.00" arrival="179.00" arrivalLane="-1483_1" arrivalPos="0.21" arrivalSpeed="14.20" duration="43.00" routeLength="504.98" waitingTime="0.00" waitingCount="0" stopTime="0.00" timeLoss="7.23" rerouteNo="0" devices="tripinfo_randomCar_1716820659114274724" vType="vehicle.dodge.charger_police_2020" speedFactor="1.07" vaporized=""/>
    <tripinfo id="randomCar_1716820659671390835" depart="137.00" departLane="-1540_1" departPos="5.34" departSpeed="0.00" departDelay="0.00" arrival="179.00" arrivalLane="-1603_1" arrivalPos="0.20" arrivalSpeed="9.46" duration="42.00" routeLength="180.20" waitingTime="8.00" waitingCount="2" stopTime="0.00" timeLoss="29.18" rerouteNo="0" devices="tripinfo_randomCar_1716820659671390835" vType="vehicle.dodge.charger_police_2020" speedFactor="1.01" vaporized=""/>
    <tripinfo id="randomCar_1716820659768634818" depart="140.00" departLane="-1633_1" departPos="5.34" departSpeed="0.00" departDelay="3.00" arrival="179.00" arrivalLane="-1462_1" arrivalPos="7.49" arrivalSpeed="8.22" duration="39.00" routeLength="222.93" waitingTime="0.00" waitingCount="0" stopTime="0.00" timeLoss="18.63" rerouteNo="0" devices="tripinfo_randomCar_1716820659768634818" vType="vehicle.dodge.charger_police_2020" speedFactor="0.85" vaporized=""/>
    <tripinfo id="randomCar_1716820659138449720" depart="136.00" departLane="-1583_1" departPos="0.20" departSpeed="0.00" departDelay="0.00" arrival="182.00" arrivalLane="-1600_1" arrivalPos="31.26" arrivalSpeed="15.64" duration="46.00" routeLength="591.32" waitingTime="0.00" waitingCount="0" stopTime="0.00" timeLoss="6.99" rerouteNo="0" devices="tripinfo_randomCar_1716820659138449720" vType="vehicle.dodge.charger_police_2020" speedFactor="1.13" vaporized=""/>
    <tripinfo id="randomCar_1716820659144442495" depart="138.00" departLane="-1410_1" departPos="5.34" departSpeed="0.00" departDelay="1.00" arrival="182.00" arrivalLane="-1562_1" arrivalPos="0.42" arrivalSpeed="6.91" duration="44.00" routeLength="379.46" waitingTime="0.00" waitingCount="0" stopTime="0.00" timeLoss="17.54" rerouteNo="0" devices="tripinfo_randomCar_1716820659144442495" vType="vehicle.dodge.charger_police_2020" speedFactor="1.13" vaporized=""/>
    <tripinfo id="randomCar_1716820658429895857" depart="135.00" departLane="-1489_0" departPos="0.20" departSpeed="0.00" departDelay="0.00" arrival="184.00" arrivalLane="-1558_1" arrivalPos="8.19" arrivalSpeed="6.45" duration="49.00" routeLength="268.32" waitingTime="19.00" waitingCount="1" stopTime="0.00" timeLoss="27.86" rerouteNo="0" devices="tripinfo_randomCar_1716820658429895857" vType="vehicle.dodge.charger_police_2020" speedFactor="0.98" vaporized=""/>
    <tripinfo id="randomCar_1716820659714316551" depart="137.00" departLane="-1635_2" departPos="5.34" departSpeed="0.00" departDelay="0.00" arrival="188.00" arrivalLane="-1553_1" arrivalPos="171.89" arrivalSpeed="16.35" duration="51.00" routeLength="602.32" waitingTime="0.00" waitingCount="0" stopTime="0.00" timeLoss="12.11" rerouteNo="0" devices="tripinfo_randomCar_1716820659714316551" vType="vehicle.dodge.charger_police_2020" speedFactor="1.18" vaporized=""/>
    <tripinfo id="randomCar_1716820655932941677" depart="131.00" departLane="-1597_1" departPos="5.34" departSpeed="0.00" departDelay="0.00" arrival="189.00" arrivalLane="-1644_1" arrivalPos="59.90" arrivalSpeed="13.49" duration="58.00" routeLength="581.34" waitingTime="0.00" waitingCount="0" stopTime="0.00" timeLoss="12.13" rerouteNo="0" devices="tripinfo_randomCar_1716820655932941677" vType="vehicle.dodge.charger_police_2020" speedFactor="1.00" vaporized=""/>
    <tripinfo id="randomCar_1716820659743972124" depart="138.00" departLane="-1485_1" departPos="0.20" departSpeed="0.00" departDelay="1.00" arrival="189.00" arrivalLane="-1651_1" arrivalPos="174.89" arrivalSpeed="14.53" duration="51.00" routeLength="373.76" waitingTime="4.00" waitingCount="4" stopTime="0.00" timeLoss="24.48" rerouteNo="0" devices="tripinfo_randomCar_1716820659743972124" vType="vehicle.dodge.charger_police_2020" speedFactor="1.09" vaporized=""/>
    <tripinfo id="randomCar_1716820655925481066" depart="131.00" departLane="-1572_1" departPos="5.34" departSpeed="0.00" departDelay="0.00" arrival="194.00" arrivalLane="-1638_1" arrivalPos="190.89" arrivalSpeed="7.43" duration="63.00" routeLength="699.70" waitingTime="0.00" waitingCount="0" stopTime="0.00" timeLoss="18.80" rerouteNo="0" devices="tripinfo_randomCar_1716820655925481066" vType="vehicle.dodge.charger_police_2020" speedFactor="1.19" vaporized=""/>
    <tripinfo id="randomCar_1716820657790863190" depart="134.00" departLane="-1465_1" departPos="5.34" departSpeed="0.00" departDelay="0.00" arrival="199.00" arrivalLane="-1427_1" arrivalPos="658.50" arrivalSpeed="11.39" duration="65.00" routeLength="729.53" waitingTime="0.00" waitingCount="0" stopTime="0.00" timeLoss="12.20" rerouteNo="0" devices="tripinfo_randomCar_1716820657790863190" vType="vehicle.dodge.charger_police_2020" speedFactor="1.00" vaporized=""/>
    <tripinfo id="randomCar_1716820655930258773" depart="137.00" departLane="-1572_1" departPos="5.34" departSpeed="0.00" departDelay="6.00" arrival="200.00" arrivalLane="-1573_1" arrivalPos="77.56" arrivalSpeed="10.43" duration="63.00" routeLength="144.14" waitingTime="41.00" waitingCount="1" stopTime="0.00" timeLoss="48.41" rerouteNo="0" devices="tripinfo_randomCar_1716820655930258773" vType="vehicle.dodge.charger_police_2020" speedFactor="0.94" vaporized=""/>
    <tripinfo id="randomCar_1716820658428150454" depart="136.00" departLane="-1408_1" departPos="0.20" departSpeed="0.00" departDelay="1.00" arrival="202.00" arrivalLane="-1542_1" arrivalPos="1.25" arrivalSpeed="10.58" duration="66.00" routeLength="148.24" waitingTime="34.00" waitingCount="4" stopTime="0.00" timeLoss="51.28" rerouteNo="0" devices="tripinfo_randomCar_1716820658428150454" vType="vehicle.dodge.charger_police_2020" speedFactor="0.87" vaporized=""/>
    <tripinfo id="randomCar_1716820659722772315" depart="137.00" departLane="-1511_1" departPos="0.20" departSpeed="0.00" departDelay="0.00" arrival="204.00" arrivalLane="-1607_1" arrivalPos="280.16" arrivalSpeed="12.48" duration="67.00" routeLength="651.78" waitingTime="0.00" waitingCount="0" stopTime="0.00" timeLoss="10.80" rerouteNo="0" devices="tripinfo_randomCar_1716820659722772315" vType="vehicle.dodge.charger_police_2020" speedFactor="0.91" vaporized=""/>
    <tripinfo id="randomCar_1716820655929365372" depart="131.00" departLane="-1587_1" departPos="5.34" departSpeed="0.00" departDelay="0.00" arrival="205.00" arrivalLane="-1467_1" arrivalPos="104.55" arrivalSpeed="7.96" duration="74.00" routeLength="642.12" waitingTime="11.00" waitingCount="1" stopTime="0.00" timeLoss="45.80" rerouteNo="0" devices="tripinfo_randomCar_1716820655929365372" vType="vehicle.dodge.charger_police_2020" speedFactor="1.10" vaporized=""/>
    <tripinfo id="randomCar_1716820659063671241" depart="136.00" departLane="-1578_1" departPos="0.11" departSpeed="0.00" departDelay="0.00" arrival="205.00" arrivalLane="-1594_1" arrivalPos="0.20" arrivalSpeed="4.58" duration="69.00" routeLength="181.44" waitingTime="20.00" waitingCount="5" stopTime="0.00" timeLoss="56.43" rerouteNo="0" devices="tripinfo_randomCar_1716820659063671241" vType="vehicle.dodge.charger_police_2020" speedFactor="1.03" vaporized=""/>
    <tripinfo id="randomCar_1716820659767897221" depart="140.00" departLane="-1599_1" departPos="5.34" departSpeed="0.00" departDelay="3.00" arrival="205.00" arrivalLane="-1419_1" arrivalPos="86.08" arrivalSpeed="13.65" duration="65.00" routeLength="381.10" waitingTime="15.00" waitingCount="1" stopTime="0.00" timeLoss="36.43" rerouteNo="0" devices="tripinfo_randomCar_1716820659767897221" vType="vehicle.dodge.charger_police_2020" speedFactor="1.05" vaporized=""/>
    <tripinfo id="randomCar_1716820659699078117" depart="142.00" departLane="-1541_1" departPos="0.20" departSpeed="0.00" departDelay="5.00" arrival="206.00" arrivalLane="-1589_1" arrivalPos="47.64" arrivalSpeed="9.09" duration="64.00" routeLength="99.67" waitingTime="43.00" waitingCount="3" stopTime="0.00" timeLoss="53.92" rerouteNo="0" devices="tripinfo_randomCar_1716820659699078117" vType="vehicle.dodge.charger_police_2020" speedFactor="0.93" vaporized=""/>
    <tripinfo id="randomCar_1716820658423967848" depart="135.00" departLane="-1647_1" departPos="0.21" departSpeed="0.00" departDelay="0.00" arrival="207.00" arrivalLane="-1529_2" arrivalPos="78.97" arrivalSpeed="11.00" duration="72.00" routeLength="657.17" waitingTime="24.00" waitingCount="1" stopTime="0.00" timeLoss="42.12" rerouteNo="0" devices="tripinfo_randomCar_1716820658423967848" vType="vehicle.dodge.charger_police_2020" speedFactor="1.14" vaporized=""/>
    <tripinfo id="randomCar_1716820657800159504" depart="134.00" departLane="-1581_1" departPos="5.34" departSpeed="0.00" departDelay="0.00" arrival="211.00" arrivalLane="-1486_1" arrivalPos="44.61" arrivalSpeed="13.69" duration="77.00" routeLength="832.78" waitingTime="0.00" waitingCount="0" stopTime="0.00" timeLoss="16.11" rerouteNo="0" devices="tripinfo_randomCar_1716820657800159504" vType="vehicle.dodge.charger_police_2020" speedFactor="1.00" vaporized=""/>
    <tripinfo id="randomCar_1716820658418120839" depart="135.00" departLane="-1587_1" departPos="5.34" departSpeed="0.00" departDelay="0.00" arrival="214.00" arrivalLane="-1534_1" arrivalPos="117.01" arrivalSpeed="11.98" duration="79.00" routeLength="812.08" waitingTime="5.00" waitingCount="1" stopTime="0.00" timeLoss="25.05" rerouteNo="0" devices="tripinfo_randomCar_1716820658418120839" vType="vehicle.dodge.charger_police_2020" speedFactor="0.89" vaporized=""/>
    <tripinfo id="randomCar_1716820659118642405" depart="136.00" departLane="-1622_2" departPos="5.34" departSpeed="0.00" departDelay="0.00" arrival="214.00" arrivalLane="-1515_1" arrivalPos="88.22" arrivalSpeed="14.64" duration="78.00" routeLength="781.76" waitingTime="1.00" waitingCount="1" stopTime="0.00" timeLoss="23.59" rerouteNo="0" devices="tripinfo_randomCar_1716820659118642405" vType="vehicle.dodge.charger_police_2020" speedFactor="1.06" vaporized=""/>
    <tripinfo id="randomCar_1716820659717313838" depart="142.00" departLane="-1648_1" departPos="0.25" departSpeed="0.00" departDelay="5.00" arrival="222.00" arrivalLane="-1614_2" arrivalPos="110.20" arrivalSpeed="9.29" duration="80.00" routeLength="756.94" waitingTime="16.00" waitingCount="2" stopTime="0.00" timeLoss="38.05" rerouteNo="0" devices="tripinfo_randomCar_1716820659717313838" vType="vehicle.dodge.charger_police_2020" speedFactor="1.14" vaporized=""/>
    <tripinfo id="randomCar_1716820658430808758" depart="135.00" departLane="-1623_1" departPos="5.34" departSpeed="0.00" departDelay="0.00" arrival="226.00" arrivalLane="-1661_1" arrivalPos="588.29" arrivalSpeed="13.94" duration="91.00" routeLength="1020.89" waitingTime="5.00" waitingCount="1" stopTime="0.00" timeLoss="23.06" rerouteNo="0" devices="tripinfo_randomCar_1716820658430808758" vType="vehicle.dodge.charger_police_2020" speedFactor="1.08" vaporized=""/>
    <tripinfo id="randomCar_1716820659079623773" depart="139.00" departLane="-1561_1" departPos="1.09" departSpeed="0.00" departDelay="3.00" arrival="227.00" arrivalLane="-1612_2" arrivalPos="219.69" arrivalSpeed="13.22" duration="88.00" routeLength="598.31" waitingTime="17.00" waitingCount="3" stopTime="0.00" timeLoss="40.28" rerouteNo="0" devices="tripinfo_randomCar_1716820659079623773" vType="vehicle.dodge.charger_police_2020" speedFactor="1.02" vaporized=""/>
    <tripinfo id="randomCar_1716820657791873191" depart="134.00" departLane="-1466_1" departPos="5.34" departSpeed="0.00" departDelay="0.00" arrival="233.00" arrivalLane="-1651_1" arrivalPos="174.89" arrivalSpeed="12.87" duration="99.00" routeLength="1172.37" waitingTime="0.00" waitingCount="0" stopTime="0.00" timeLoss="14.43" rerouteNo="0" devices="tripinfo_randomCar_1716820657791873191" vType="vehicle.dodge.charger_police_2020" speedFactor="1.02" vaporized=""/>
    <tripinfo id="randomCar_1716820658440616673" depart="136.00" departLane="-1589_1" departPos="5.34" departSpeed="0.00" departDelay="0.00" arrival="233.00" arrivalLane="-1638_1" arrivalPos="190.89" arrivalSpeed="11.58" duration="97.00" routeLength="757.78" waitingTime="29.00" waitingCount="2" stopTime="0.00" timeLoss="47.65" rerouteNo="0" devices="tripinfo_randomCar_1716820658440616673" vType="vehicle.dodge.charger_police_2020" speedFactor="0.92" vaporized=""/>
    <tripinfo id="randomCar_1716820659028510692" depart="136.00" departLane="-1561_1" departPos="1.09" departSpeed="0.00" departDelay="0.00" arrival="240.00" arrivalLane="-1635_1" arrivalPos="70.06" arrivalSpeed="15.16" duration="104.00" routeLength="959.66" waitingTime="3.00" waitingCount="1" stopTime="0.00" timeLoss="41.88" rerouteNo="0" devices="tripinfo_randomCar_1716820659028510692" vType="vehicle.dodge.charger_police_2020" speedFactor="1.18" vaporized=""/>
    <tripinfo id="randomCar_1716820659065692632" depart="137.00" departLane="-1634_1" departPos="5.34" departSpeed="0.00" departDelay="1.00" arrival="241.00" arrivalLane="-1492_1" arrivalPos="3.46" arrivalSpeed="12.05" duration="104.00" routeLength="1269.70" waitingTime="0.00" waitingCount="0" stopTime="0.00" timeLoss="15.14" rerouteNo="0" devices="tripinfo_randomCar_1716820659065692632" vType="vehicle.dodge.charger_police_2020" speedFactor="1.07" vaporized=""/>
    <tripinfo id="randomCar_1716820657798451301" depart="137.00" departLane="-1465_1" departPos="5.34" departSpeed="0.00" departDelay="3.00" arrival="242.00" arrivalLane="-1600_1" arrivalPos="31.26" arrivalSpeed="10.81" duration="105.00" routeLength="1246.53" waitingTime="0.00" waitingCount="0" stopTime="0.00" timeLoss="23.58" rerouteNo="0" devices="tripinfo_randomCar_1716820657798451301" vType="vehicle.dodge.charger_police_2020" speedFactor="1.15" vaporized=""/>
    <tripinfo id="randomCar_1716820658432482261" depart="135.00" departLane="-1487_0" departPos="0.20" departSpeed="0.00" departDelay="0.00" arrival="249.00" arrivalLane="-1466_1" arrivalPos="53.22" arrivalSpeed="15.99" duration="114.00" routeLength="1231.67" waitingTime="0.00" waitingCount="0" stopTime="0.00" timeLoss="41.48" rerouteNo="0" devices="tripinfo_randomCar_1716820658432482261" vType="vehicle.dodge.charger_police_2020" speedFactor="1.25" vaporized=""/>
    <tripinfo id="randomCar_1716820659030709282" depart="136.00" departLane="-1655_1" departPos="0.20" departSpeed="0.00" departDelay="0.00" arrival="249.00" arrivalLane="-1455_1" arrivalPos="3.17" arrivalSpeed="8.50" duration="113.00" routeLength="598.44" waitingTime="53.00" waitingCount="1" stopTime="0.00" timeLoss="69.29" rerouteNo="0" devices="tripinfo_randomCar_1716820659030709282" vType="vehicle.dodge.charger_police_2020" speedFactor="1.00" vaporized=""/>
    <tripinfo id="randomCar_1716820659069849714" depart="136.00" departLane="-1605_1" departPos="2.68" departSpeed="0.00" departDelay="0.00" arrival="249.00" arrivalLane="-1538_1" arrivalPos="52.33" arrivalSpeed="5.79" duration="113.00" routeLength="122.30" waitingTime="94.00" waitingCount="1" stopTime="0.00" timeLoss="104.77" rerouteNo="0" devices="tripinfo_randomCar_1716820659069849714" vType="vehicle.dodge.charger_police_2020" speedFactor="1.04" vaporized=""/>
    <tripinfo id="randomCar_1716820659088825033" depart="136.00" departLane="-1591_1" departPos="5.34" departSpeed="0.00" departDelay="0.00" arrival="249.00" arrivalLane="-1513_1" arrivalPos="41.86" arrivalSpeed="15.22" duration="113.00" routeLength="1367.06" waitingTime="7.00" waitingCount="1" stopTime="0.00" timeLoss="27.63" rerouteNo="0" devices="tripinfo_randomCar_1716820659088825033" vType="vehicle.dodge.charger_police_2020" speedFactor="1.16" vaporized=""/>
    <tripinfo id="randomCar_1716820659140855210" depart="136.00" departLane="-1544_1" departPos="5.34" departSpeed="0.00" departDelay="0.00" arrival="249.00" arrivalLane="-1635_1" arrivalPos="70.06" arrivalSpeed="14.10" duration="113.00" routeLength="1003.11" waitingTime="4.00" waitingCount="2" stopTime="0.00" timeLoss="40.76" rerouteNo="0" devices="tripinfo_randomCar_1716820659140855210" vType="vehicle.dodge.charger_police_2020" speedFactor="1.05" vaporized=""/>
    <tripinfo id="randomCar_1716820659049568701" depart="136.00" departLane="-1665_1" departPos="5.34" departSpeed="0.00" departDelay="0.00" arrival="250.00" arrivalLane="-1608.38_1" arrivalPos="249.92" arrivalSpeed="14.37" duration="114.00" routeLength="1020.19" waitingTime="8.00" waitingCount="2" stopTime="0.00" timeLoss="42.31" rerouteNo="0" devices="tripinfo_randomCar_1716820659049568701" vType="vehicle.dodge.charger_police_2020" speedFactor="1.06" vaporized=""/>
    <tripinfo id="randomCar_1716820659755457975" depart="144.00" departLane="-1485_1" departPos="0.20" departSpeed="0.00" departDelay="7.00" arrival="250.00" arrivalLane="-1529_2" arrivalPos="78.97" arrivalSpeed="14.83" duration="106.00" routeLength="1004.12" waitingTime="16.00" waitingCount="1" stopTime="0.00" timeLoss="35.48" rerouteNo="0" devices="tripinfo_randomCar_1716820659755457975" vType="vehicle.dodge.charger_police_2020" speedFactor="1.14" vaporized=""/>
    <tripinfo id="randomCar_1716820659764969134" depart="137.00" departLane="-1640_0" departPos="5.34" departSpeed="0.00" departDelay="0.00" arrival="250.00" arrivalLane="-1486_1" arrivalPos="44.61" arrivalSpeed="11.20" duration="113.00" routeLength="944.88" waitingTime="19.00" waitingCount="1" stopTime="0.00" timeLoss="40.22" rerouteNo="0" devices="tripinfo_randomCar_1716820659764969134" vType="vehicle.dodge.charger_police_2020" speedFactor="0.89" vaporized=""/>
    <tripinfo id="randomCar_1716820659725222804" depart="137.00" departLane="-1570_1" departPos="5.34" departSpeed="0.00" departDelay="0.00" arrival="253.00" arrivalLane="-1493_1" arrivalPos="0.20" arrivalSpeed="12.34" duration="116.00" routeLength="1169.47" waitingTime="1.00" waitingCount="1" stopTime="0.00" timeLoss="19.87" rerouteNo="0" devices="tripinfo_randomCar_1716820659725222804" vType="vehicle.dodge.charger_police_2020" speedFactor="0.90" vaporized=""/>
    <tripinfo id="randomCar_1716820655927760969" depart="131.00" departLane="-1629_1" departPos="5.34" departSpeed="0.00" departDelay="0.00" arrival="255.00" arrivalLane="-1523_2" arrivalPos="66.85" arrivalSpeed="14.73" duration="124.00" routeLength="1259.24" waitingTime="8.00" waitingCount="1" stopTime="0.00" timeLoss="29.45" rerouteNo="0" devices="tripinfo_randomCar_1716820655927760969" vType="vehicle.dodge.charger_police_2020" speedFactor="1.07" vaporized=""/>
    <tripinfo id="randomCar_1716820659752367288" depart="137.00" departLane="-1513_1" departPos="5.34" departSpeed="0.00" departDelay="0.00" arrival="259.00" arrivalLane="-1613_1" arrivalPos="154.43" arrivalSpeed="12.38" duration="122.00" routeLength="1249.38" waitingTime="0.00" waitingCount="0" stopTime="0.00" timeLoss="17.59" rerouteNo="0" devices="tripinfo_randomCar_1716820659752367288" vType="vehicle.dodge.charger_police_2020" speedFactor="0.92" vaporized=""/>
    <tripinfo id="randomCar_1716820659032943573" depart="136.00" departLane="-1601_1" departPos="5.34" departSpeed="0.00" departDelay="0.00" arrival="260.00" arrivalLane="-1638_1" arrivalPos="190.89" arrivalSpeed="13.50" duration="124.00" routeLength="793.09" waitingTime="40.00" waitingCount="2" stopTime="0.00" timeLoss="65.28" rerouteNo="0" devices="tripinfo_randomCar_1716820659032943573" vType="vehicle.dodge.charger_police_2020" speedFactor="0.99" vaporized=""/>
    <tripinfo id="randomCar_1716820659742996728" depart="140.00" departLane="-1570_1" departPos="5.34" departSpeed="0.00" departDelay="3.00" arrival="263.00" arrivalLane="-1657_1" arrivalPos="0.48" arrivalSpeed="10.66" duration="123.00" routeLength="823.65" waitingTime="25.00" waitingCount="2" stopTime="0.00" timeLoss="57.69" rerouteNo="0" devices="tripinfo_randomCar_1716820659742996728" vType="vehicle.dodge.charger_police_2020" speedFactor="0.94" vaporized=""/>
    <tripinfo id="randomCar_1716820659076619085" depart="139.00" departLane="-1601_1" departPos="5.34" departSpeed="0.00" departDelay="3.00" arrival="265.00" arrivalLane="-1421_1" arrivalPos="172.61" arrivalSpeed="14.28" duration="126.00" routeLength="1493.48" waitingTime="2.00" waitingCount="1" stopTime="0.00" timeLoss="21.22" rerouteNo="0" devices="tripinfo_randomCar_1716820659076619085" vType="vehicle.dodge.charger_police_2020" speedFactor="1.12" vaporized=""/>
    <tripinfo id="randomCar_1716820659666410657" depart="137.00" departLane="-1512_1" departPos="0.20" departSpeed="0.00" departDelay="0.00" arrival="267.00" arrivalLane="-1643_1" arrivalPos="73.81" arrivalSpeed="14.29" duration="130.00" routeLength="601.70" waitingTime="58.00" waitingCount="1" stopTime="0.00" timeLoss="80.87" rerouteNo="0" devices="tripinfo_randomCar_1716820659666410657" vType="vehicle.dodge.charger_police_2020" speedFactor="1.06" vaporized=""/>
    <tripinfo id="randomCar_1716820656559538326" depart="132.00" departLane="-1604_1" departPos="5.34" departSpeed="0.00" departDelay="0.00" arrival="272.00" arrivalLane="-1552_2" arrivalPos="15.11" arrivalSpeed="8.99" duration="140.00" routeLength="131.84" waitingTime="110.00" waitingCount="3" stopTime="0.00" timeLoss="129.26" rerouteNo="0" devices="tripinfo_randomCar_1716820656559538326" vType="vehicle.dodge.charger_police_2020" speedFactor="0.91" vaporized=""/>
    <tripinfo id="randomCar_1716820659744994320" depart="143.00" departLane="-1504_1" departPos="5.34" departSpeed="0.00" departDelay="6.00" arrival="279.00" arrivalLane="-1532_1" arrivalPos="107.18" arrivalSpeed="14.97" duration="136.00" routeLength="709.34" waitingTime="57.00" waitingCount="1" stopTime="0.00" timeLoss="84.13" rerouteNo="0" devices="tripinfo_randomCar_1716820659744994320" vType="vehicle.dodge.charger_police_2020" speedFactor="1.14" vaporized=""/>
    <tripinfo id="randomCar_1716820659748574804" depart="137.00" departLane="-1616_1" departPos="5.34" departSpeed="0.00" departDelay="0.00" arrival="283.00" arrivalLane="-1433_1" arrivalPos="10.24" arrivalSpeed="18.68" duration="146.00" routeLength="830.62" waitingTime="80.00" waitingCount="1" stopTime="0.00" timeLoss="97.32" rerouteNo="0" devices="tripinfo_randomCar_1716820659748574804" vType="vehicle.dodge.charger_police_2020" speedFactor="1.00" vaporized=""/>
    <tripinfo id="randomCar_1716820656567569638" depart="132.00" departLane="-1498_0" departPos="0.20" departSpeed="0.00" departDelay="0.00" arrival="284.00" arrivalLane="-1655_2" arrivalPos="0.20" arrivalSpeed="11.19" duration="152.00" routeLength="1040.12" waitingTime="35.00" waitingCount="4" stopTime="0.00" timeLoss="75.82" rerouteNo="0" devices="tripinfo_randomCar_1716820656567569638" vType="vehicle.dodge.charger_police_2020" speedFactor="1.04" vaporized=""/>
    <tripinfo id="randomCar_1716820659136568228" depart="136.00" departLane="-1624_2" departPos="5.34" departSpeed="0.00" departDelay="0.00" arrival="284.00" arrivalLane="-1536_1" arrivalPos="7.78" arrivalSpeed="21.88" duration="148.00" routeLength="1107.05" waitingTime="52.00" waitingCount="1" stopTime="0.00" timeLoss="74.24" rerouteNo="0" devices="tripinfo_randomCar_1716820659136568228" vType="vehicle.dodge.charger_police_2020" speedFactor="0.99" vaporized=""/>
    <tripinfo id="randomCar_1716820659729882484" depart="142.00" departLane="-1583_1" departPos="0.20" departSpeed="0.00" departDelay="5.00" arrival="285.00" arrivalLane="-1649_1" arrivalPos="0.20" arrivalSpeed="8.48" duration="143.00" routeLength="919.32" waitingTime="64.00" waitingCount="1" stopTime="0.00" timeLoss="87.41" rerouteNo="0" devices="tripinfo_randomCar_1716820659729882484" vType="vehicle.dodge.charger_police_2020" speedFactor="1.05" vaporized=""/>
    <tripinfo id="randomCar_1716820658435108665" depart="135.00" departLane="-1486_1" departPos="5.34" departSpeed="0.00" departDelay="0.00" arrival="286.00" arrivalLane="-1612_2" arrivalPos="219.69" arrivalSpeed="13.30" duration="151.00" routeLength="1168.03" waitingTime="25.00" waitingCount="1" stopTime="0.00" timeLoss="51.89" rerouteNo="0" devices="tripinfo_randomCar_1716820658435108665" vType="vehicle.dodge.charger_police_2020" speedFactor="0.96" vaporized=""/>