<?xml version="1.0" encoding="UTF-8"?>

<!-- generated on 2024-05-24 22:33:54 by Eclipse SUMO GUI Version 1.12.0
<configuration xmlns:xsi="http://www.w3.org/2001/XMLSchema-instance" xsi:noNamespaceSchemaLocation="http://sumo.dlr.de/xsd/sumoConfiguration.xsd">

    <input>
        <net-file value="Adapters/co_simulation/sumo_configuration/simple-map/UA.net.xml"/>
        <route-files value="Adapters/co_simulation/sumo_configuration/simple-map/carlavtypes.rou.xml,Adapters/co_simulation/sumo_configuration/simple-map/simple-map.rou.xml"/>
    </input>

    <output>
        <tripinfo-output value="tripinfo.xml"/>
    </output>

    <traci_server>
        <remote-port value="46339"/>
        <num-clients value="1"/>
    </traci_server>

    <gui_only>
        <gui-settings-file value="Adapters/co_simulation/sumo_configuration/simple-map/simple-map.view.xml"/>
        <quit-on-end value="true"/>
    </gui_only>

</configuration>
-->

<tripinfos xmlns:xsi="http://www.w3.org/2001/XMLSchema-instance" xsi:noNamespaceSchemaLocation="http://sumo.dlr.de/xsd/tripinfo_file.xsd">
    <tripinfo id="randomCar_1716586453621562989" depart="27.00" departLane="-1664_1" departPos="5.34" departSpeed="0.00" departDelay="0.00" arrival="34.00" arrivalLane="-1665_2" arrivalPos="15.61" arrivalSpeed="10.30" duration="7.00" routeLength="35.79" waitingTime="0.00" waitingCount="0" stopTime="0.00" timeLoss="4.49" rerouteNo="0" devices="tripinfo_randomCar_1716586453621562989" vType="vehicle.dodge.charger_police_2020" speedFactor="1.06" vaporized=""/>
    <tripinfo id="0" depart="3.00" departLane="-1466_1" departPos="5.34" departSpeed="0.00" departDelay="0.00" arrival="35.00" arrivalLane="-1427_1" arrivalPos="250.74" arrivalSpeed="14.01" duration="32.00" routeLength="388.90" waitingTime="0.00" waitingCount="0" stopTime="0.00" timeLoss="4.59" rerouteNo="0" devices="tripinfo_0" vType="vehicle.dodge.charger_police_2020" speedFactor="1.06" vaporized="traci"/>
    <tripinfo id="randomCar_1716586450461650662" depart="22.00" departLane="-1427_1" departPos="5.34" departSpeed="0.00" departDelay="0.00" arrival="35.00" arrivalLane="-1427_1" arrivalPos="112.70" arrivalSpeed="11.68" duration="13.00" routeLength="107.36" waitingTime="0.00" waitingCount="0" stopTime="0.00" timeLoss="3.28" rerouteNo="0" devices="tripinfo_randomCar_1716586450461650662" vType="vehicle.dodge.charger_police_2020" speedFactor="0.89" vaporized="traci"/>
    <tripinfo id="randomCar_1716586450472775941" depart="22.00" departLane="-1517_1" departPos="5.34" departSpeed="0.00" departDelay="0.00" arrival="35.00" arrivalLane=":18_0_1" arrivalPos="14.90" arrivalSpeed="3.33" duration="13.00" routeLength="76.48" waitingTime="0.00" waitingCount="0" stopTime="0.00" timeLoss="5.60" rerouteNo="0" devices="tripinfo_randomCar_1716586450472775941" vType="vehicle.dodge.charger_police_2020" speedFactor="0.94" vaporized="traci"/>
    <tripinfo id="randomCar_1716586450477230033" depart="22.00" departLane="-1455_1" departPos="3.17" departSpeed="0.00" departDelay="0.00" arrival="35.00" arrivalLane=":116_2_0" arrivalPos="9.36" arrivalSpeed="3.53" duration="13.00" routeLength="85.97" waitingTime="0.00" waitingCount="0" stopTime="0.00" timeLoss="3.06" rerouteNo="0" devices="tripinfo_randomCar_1716586450477230033" vType="vehicle.dodge.charger_police_2020" speedFactor="0.86" vaporized="traci"/>
    <tripinfo id="randomCar_1716586450482140945" depart="23.00" departLane="-1492_1" departPos="3.46" departSpeed="0.00" departDelay="0.00" arrival="35.00" arrivalLane=":64_0_1" arrivalPos="5.62" arrivalSpeed="10.56" duration="12.00" routeLength="70.48" waitingTime="0.00" waitingCount="0" stopTime="0.00" timeLoss="3.03" rerouteNo="0" devices="tripinfo_randomCar_1716586450482140945" vType="vehicle.dodge.charger_police_2020" speedFactor="0.78" vaporized="traci"/>
    <tripinfo id="randomCar_1716586451080728460" depart="23.00" departLane="-1545_1" departPos="5.34" departSpeed="0.00" departDelay="0.00" arrival="35.00" arrivalLane="-1567_1" arrivalPos="1.93" arrivalSpeed="5.20" duration="12.00" routeLength="79.27" waitingTime="0.00" waitingCount="0" stopTime="0.00" timeLoss="3.95" rerouteNo="0" devices="tripinfo_randomCar_1716586451080728460" vType="vehicle.dodge.charger_police_2020" speedFactor="0.92" vaporized="traci"/>
    <tripinfo id="randomCar_1716586451081770861" depart="23.00" departLane="-1633_1" departPos="5.34" departSpeed="0.00" departDelay="0.00" arrival="35.00" arrivalLane=":71_0_0" arrivalPos="1.77" arrivalSpeed="3.02" duration="12.00" routeLength="72.99" waitingTime="0.00" waitingCount="0" stopTime="0.00" timeLoss="4.93" rerouteNo="0" devices="tripinfo_randomCar_1716586451081770861" vType="vehicle.dodge.charger_police_2020" speedFactor="0.96" vaporized="traci"/>
    <tripinfo id="randomCar_1716586451083097761" depart="23.00" departLane="-1645_1" departPos="5.34" departSpeed="0.00" departDelay="0.00" arrival="35.00" arrivalLane="-1645_1" arrivalPos="133.57" arrivalSpeed="19.27" duration="12.00" routeLength="128.23" waitingTime="0.00" waitingCount="0" stopTime="0.00" timeLoss="4.59" rerouteNo="0" devices="tripinfo_randomCar_1716586451083097761" vType="vehicle.dodge.charger_police_2020" speedFactor="0.90" vaporized="traci"/>
    <tripinfo id="randomCar_1716586451085321062" depart="23.00" departLane="-1502_0" departPos="0.20" departSpeed="0.00" departDelay="0.00" arrival="35.00" arrivalLane=":86_0_0" arrivalPos="6.11" arrivalSpeed="6.43" duration="12.00" routeLength="46.29" waitingTime="0.00" waitingCount="0" stopTime="0.00" timeLoss="5.23" rerouteNo="0" devices="tripinfo_randomCar_1716586451085321062" vType="vehicle.dodge.charger_police_2020" speedFactor="0.95" vaporized="traci"/>
    <tripinfo id="randomCar_1716586451087793363" depart="23.00" departLane="-1666_1" departPos="5.34" departSpeed="0.00" departDelay="0.00" arrival="35.00" arrivalLane="-1521_1" arrivalPos="0.10" arrivalSpeed="0.00" duration="12.00" routeLength="29.03" waitingTime="4.00" waitingCount="1" stopTime="0.00" timeLoss="8.50" rerouteNo="0" devices="tripinfo_randomCar_1716586451087793363" vType="vehicle.dodge.charger_police_2020" speedFactor="1.04" vaporized="traci"/>
    <tripinfo id="randomCar_1716586451089742764" depart="23.00" departLane="-1578_1" departPos="0.11" departSpeed="0.00" departDelay="0.00" arrival="35.00" arrivalLane="-1619_1" arrivalPos="60.19" arrivalSpeed="0.08" duration="12.00" routeLength="69.95" waitingTime="1.00" waitingCount="1" stopTime="0.00" timeLoss="7.65" rerouteNo="0" devices="tripinfo_randomCar_1716586451089742764" vType="vehicle.dodge.charger_police_2020" speedFactor="1.10" vaporized="traci"/>
    <tripinfo id="randomCar_1716586451090660464" depart="23.00" departLane="-1623_1" departPos="5.34" departSpeed="0.00" departDelay="0.00" arrival="35.00" arrivalLane="-1623_2" arrivalPos="118.59" arrivalSpeed="13.83" duration="12.00" routeLength="113.25" waitingTime="0.00" waitingCount="0" stopTime="0.00" timeLoss="3.47" rerouteNo="0" devices="tripinfo_randomCar_1716586451090660464" vType="vehicle.dodge.charger_police_2020" speedFactor="1.08" vaporized="traci"/>
    <tripinfo id="randomCar_1716586451091968264" depart="24.00" departLane="-1504_1" departPos="5.34" departSpeed="0.00" departDelay="0.00" arrival="35.00" arrivalLane=":93_2_0" arrivalPos="12.71" arrivalSpeed="0.14" duration="11.00" routeLength="42.56" waitingTime="0.00" waitingCount="0" stopTime="0.00" timeLoss="5.84" rerouteNo="0" devices="tripinfo_randomCar_1716586451091968264" vType="vehicle.dodge.charger_police_2020" speedFactor="1.01" vaporized="traci"/>
    <tripinfo id="randomCar_1716586451702213388" depart="24.00" departLane="-1637_1" departPos="5.34" departSpeed="0.00" departDelay="0.00" arrival="35.00" arrivalLane="-1635_1" arrivalPos="5.88" arrivalSpeed="7.33" duration="11.00" routeLength="68.26" waitingTime="0.00" waitingCount="0" stopTime="0.00" timeLoss="3.95" rerouteNo="0" devices="tripinfo_randomCar_1716586451702213388" vType="vehicle.dodge.charger_police_2020" speedFactor="0.98" vaporized="traci"/>
    <tripinfo id="randomCar_1716586451703004488" depart="24.00" departLane="-1613_2" departPos="5.34" departSpeed="0.00" departDelay="0.00" arrival="35.00" arrivalLane="-1613_2" arrivalPos="89.52" arrivalSpeed="11.17" duration="11.00" routeLength="84.18" waitingTime="0.00" waitingCount="0" stopTime="0.00" timeLoss="3.19" rerouteNo="0" devices="tripinfo_randomCar_1716586451703004488" vType="vehicle.dodge.charger_police_2020" speedFactor="0.89" vaporized="traci"/>
    <tripinfo id="randomCar_1716586451703833188" depart="24.00" departLane="-1467_1" departPos="5.34" departSpeed="0.00" departDelay="0.00" arrival="35.00" arrivalLane="-1467_1" arrivalPos="96.95" arrivalSpeed="9.77" duration="11.00" routeLength="91.61" waitingTime="0.00" waitingCount="0" stopTime="0.00" timeLoss="5.01" rerouteNo="0" devices="tripinfo_randomCar_1716586451703833188" vType="vehicle.dodge.charger_police_2020" speedFactor="0.83" vaporized="traci"/>
    <tripinfo id="randomCar_1716586451704871689" depart="24.00" departLane="-1588_1" departPos="0.20" departSpeed="0.00" departDelay="0.00" arrival="35.00" arrivalLane="-1589_1" arrivalPos="38.75" arrivalSpeed="0.73" duration="11.00" routeLength="53.05" waitingTime="0.00" waitingCount="0" stopTime="0.00" timeLoss="5.62" rerouteNo="0" devices="tripinfo_randomCar_1716586451704871689" vType="vehicle.dodge.charger_police_2020" speedFactor="0.87" vaporized="traci"/>
    <tripinfo id="randomCar_1716586451705742289" depart="24.00" departLane="-1555_1" departPos="5.34" departSpeed="0.00" departDelay="0.00" arrival="35.00" arrivalLane="-1555_1" arrivalPos="85.72" arrivalSpeed="4.49" duration="11.00" routeLength="80.38" waitingTime="0.00" waitingCount="0" stopTime="0.00" timeLoss="3.69" rerouteNo="0" devices="tripinfo_randomCar_1716586451705742289" vType="vehicle.dodge.charger_police_2020" speedFactor="0.92" vaporized="traci"/>
    <tripinfo id="randomCar_1716586451708068790" depart="24.00" departLane="-1507_1" departPos="5.34" departSpeed="0.00" departDelay="0.00" arrival="35.00" arrivalLane="-1507_1" arrivalPos="101.88" arrivalSpeed="11.99" duration="11.00" routeLength="96.54" waitingTime="0.00" waitingCount="0" stopTime="0.00" timeLoss="2.68" rerouteNo="0" devices="tripinfo_randomCar_1716586451708068790" vType="vehicle.dodge.charger_police_2020" speedFactor="0.95" vaporized="traci"/>
    <tripinfo id="randomCar_1716586451709502890" depart="24.00" departLane="-1653_1" departPos="5.34" departSpeed="0.00" departDelay="0.00" arrival="35.00" arrivalLane="-1662_1" arrivalPos="22.85" arrivalSpeed="8.70" duration="11.00" routeLength="49.99" waitingTime="0.00" waitingCount="0" stopTime="0.00" timeLoss="7.14" rerouteNo="0" devices="tripinfo_randomCar_1716586451709502890" vType="vehicle.dodge.charger_police_2020" speedFactor="1.13" vaporized="traci"/>
    <tripinfo id="randomCar_1716586451710537991" depart="24.00" departLane="-1473_1" departPos="5.34" departSpeed="0.00" departDelay="0.00" arrival="35.00" arrivalLane="-1473_1" arrivalPos="111.93" arrivalSpeed="20.01" duration="11.00" routeLength="106.59" waitingTime="0.00" waitingCount="0" stopTime="0.00" timeLoss="4.85" rerouteNo="0" devices="tripinfo_randomCar_1716586451710537991" vType="vehicle.dodge.charger_police_2020" speedFactor="0.93" vaporized="traci"/>
    <tripinfo id="randomCar_1716586451711754591" depart="24.00" departLane="-1505_1" departPos="0.20" departSpeed="0.00" departDelay="0.00" arrival="35.00" arrivalLane="-1593_2" arrivalPos="67.69" arrivalSpeed="16.02" duration="11.00" routeLength="94.79" waitingTime="0.00" waitingCount="0" stopTime="0.00" timeLoss="3.37" rerouteNo="0" devices="tripinfo_randomCar_1716586451711754591" vType="vehicle.dodge.charger_police_2020" speedFactor="1.18" vaporized="traci"/>
    <tripinfo id="randomCar_1716586451715120692" depart="24.00" departLane="-1521_1" departPos="0.20" departSpeed="0.00" departDelay="0.00" arrival="35.00" arrivalLane=":93_2_0" arrivalPos="4.57" arrivalSpeed="0.58" duration="11.00" routeLength="49.58" waitingTime="0.00" waitingCount="0" stopTime="0.00" timeLoss="6.10" rerouteNo="0" devices="tripinfo_randomCar_1716586451715120692" vType="vehicle.dodge.charger_police_2020" speedFactor="1.15" vaporized="traci"/>
    <tripinfo id="randomCar_1716586451715994393" depart="24.00" departLane="-1662_1" departPos="5.34" departSpeed="0.00" departDelay="0.00" arrival="35.00" arrivalLane="-1476_1" arrivalPos="13.66" arrivalSpeed="9.20" duration="11.00" routeLength="62.43" waitingTime="0.00" waitingCount="0" stopTime="0.00" timeLoss="4.58" rerouteNo="0" devices="tripinfo_randomCar_1716586451715994393" vType="vehicle.dodge.charger_police_2020" speedFactor="1.01" vaporized="traci"/>
    <tripinfo id="randomCar_1716586451717282893" depart="25.00" departLane="-1663_1" departPos="5.34" departSpeed="0.00" departDelay="0.00" arrival="35.00" arrivalLane="-1663_1" arrivalPos="87.58" arrivalSpeed="11.93" duration="10.00" routeLength="82.24" waitingTime="0.00" waitingCount="0" stopTime="0.00" timeLoss="2.33" rerouteNo="0" devices="tripinfo_randomCar_1716586451717282893" vType="vehicle.dodge.charger_police_2020" speedFactor="0.89" vaporized="traci"/>
    <tripinfo id="randomCar_1716586452322941214" depart="25.00" departLane="-1593_1" departPos="5.34" departSpeed="0.00" departDelay="0.00" arrival="35.00" arrivalLane="-1593_1" arrivalPos="81.15" arrivalSpeed="12.17" duration="10.00" routeLength="75.81" waitingTime="0.00" waitingCount="0" stopTime="0.00" timeLoss="3.37" rerouteNo="0" devices="tripinfo_randomCar_1716586452322941214" vType="vehicle.dodge.charger_police_2020" speedFactor="0.97" vaporized="traci"/>
    <tripinfo id="randomCar_1716586452327271716" depart="25.00" departLane="-1544_1" departPos="5.34" departSpeed="0.00" departDelay="0.00" arrival="35.00" arrivalLane=":22_2_0" arrivalPos="1.79" arrivalSpeed="1.89" duration="10.00" routeLength="17.24" waitingTime="2.00" waitingCount="1" stopTime="0.00" timeLoss="7.76" rerouteNo="0" devices="tripinfo_randomCar_1716586452327271716" vType="vehicle.dodge.charger_police_2020" speedFactor="1.09" vaporized="traci"/>
    <tripinfo id="randomCar_1716586452330707017" depart="25.00" departLane="-1569_1" departPos="5.34" departSpeed="0.00" departDelay="0.00" arrival="35.00" arrivalLane="-1569_1" arrivalPos="91.66" arrivalSpeed="13.84" duration="10.00" routeLength="86.32" waitingTime="0.00" waitingCount="0" stopTime="0.00" timeLoss="3.25" rerouteNo="0" devices="tripinfo_randomCar_1716586452330707017" vType="vehicle.dodge.charger_police_2020" speedFactor="1.08" vaporized="traci"/>
    <tripinfo id="randomCar_1716586452331560318" depart="25.00" departLane="-1640_0" departPos="5.34" departSpeed="0.00" departDelay="0.00" arrival="35.00" arrivalLane="-1640_0" arrivalPos="92.18" arrivalSpeed="17.67" duration="10.00" routeLength="86.84" waitingTime="0.00" waitingCount="0" stopTime="0.00" timeLoss="5.67" rerouteNo="0" devices="tripinfo_randomCar_1716586452331560318" vType="vehicle.dodge.charger_police_2020" speedFactor="0.94" vaporized="traci"/>
    <tripinfo id="randomCar_1716586452334384919" depart="25.00" departLane="-1506_1" departPos="5.34" departSpeed="0.00" departDelay="0.00" arrival="35.00" arrivalLane="-1506_1" arrivalPos="17.12" arrivalSpeed="0.00" duration="10.00" routeLength="11.78" waitingTime="4.00" waitingCount="1" stopTime="0.00" timeLoss="8.14" rerouteNo="0" devices="tripinfo_randomCar_1716586452334384919" vType="vehicle.dodge.charger_police_2020" speedFactor="0.99" vaporized="traci"/>
    <tripinfo id="randomCar_1716586452335842419" depart="25.00" departLane="-1665_1" departPos="5.34" departSpeed="0.00" departDelay="0.00" arrival="35.00" arrivalLane="-1666_1" arrivalPos="24.58" arrivalSpeed="0.05" duration="10.00" routeLength="43.88" waitingTime="1.00" waitingCount="1" stopTime="0.00" timeLoss="5.86" rerouteNo="0" devices="tripinfo_randomCar_1716586452335842419" vType="vehicle.dodge.charger_police_2020" speedFactor="1.01" vaporized="traci"/>
    <tripinfo id="randomCar_1716586452336627919" depart="25.00" departLane="-1455_1" departPos="3.17" departSpeed="0.00" departDelay="0.00" arrival="35.00" arrivalLane="-1540_1" arrivalPos="59.52" arrivalSpeed="9.19" duration="10.00" routeLength="69.98" waitingTime="0.00" waitingCount="0" stopTime="0.00" timeLoss="2.55" rerouteNo="0" devices="tripinfo_randomCar_1716586452336627919" vType="vehicle.dodge.charger_police_2020" speedFactor="0.83" vaporized="traci"/>
    <tripinfo id="randomCar_1716586452337373220" depart="25.00" departLane="-1627_2" departPos="5.34" departSpeed="0.00" departDelay="0.00" arrival="35.00" arrivalLane=":95_9_0" arrivalPos="10.49" arrivalSpeed="0.15" duration="10.00" routeLength="38.82" waitingTime="0.00" waitingCount="0" stopTime="0.00" timeLoss="4.94" rerouteNo="0" devices="tripinfo_randomCar_1716586452337373220" vType="vehicle.dodge.charger_police_2020" speedFactor="0.90" vaporized="traci"/>
    <tripinfo id="randomCar_1716586452338096920" depart="25.00" departLane="-1589_1" departPos="5.34" departSpeed="0.00" departDelay="0.00" arrival="35.00" arrivalLane="-1589_1" arrivalPos="46.64" arrivalSpeed="0.01" duration="10.00" routeLength="41.30" waitingTime="1.00" waitingCount="1" stopTime="0.00" timeLoss="5.72" rerouteNo="0" devices="tripinfo_randomCar_1716586452338096920" vType="vehicle.dodge.charger_police_2020" speedFactor="0.91" vaporized="traci"/>
    <tripinfo id="randomCar_1716586452338858620" depart="28.00" departLane="-1455_1" departPos="3.17" departSpeed="0.00" departDelay="3.00" arrival="35.00" arrivalLane="-1540_1" arrivalPos="34.31" arrivalSpeed="12.84" duration="7.00" routeLength="44.77" waitingTime="0.00" waitingCount="0" stopTime="0.00" timeLoss="2.60" rerouteNo="0" devices="tripinfo_randomCar_1716586452338858620" vType="vehicle.dodge.charger_police_2020" speedFactor="1.07" vaporized="traci"/>
    <tripinfo id="randomCar_1716586452340115121" depart="25.00" departLane="-1538_1" departPos="5.34" departSpeed="0.00" departDelay="0.00" arrival="35.00" arrivalLane="-1518_1" arrivalPos="0.28" arrivalSpeed="7.54" duration="10.00" routeLength="61.19" waitingTime="0.00" waitingCount="0" stopTime="0.00" timeLoss="5.20" rerouteNo="0" devices="tripinfo_randomCar_1716586452340115121" vType="vehicle.dodge.charger_police_2020" speedFactor="0.90" vaporized="traci"/>
    <tripinfo id="randomCar_1716586452341267321" depart="25.00" departLane="-1563_1" departPos="5.34" departSpeed="0.00" departDelay="0.00" arrival="35.00" arrivalLane="-1563_1" arrivalPos="14.28" arrivalSpeed="0.00" duration="10.00" routeLength="8.94" waitingTime="5.00" waitingCount="1" stopTime="0.00" timeLoss="8.31" rerouteNo="0" devices="tripinfo_randomCar_1716586452341267321" vType="vehicle.dodge.charger_police_2020" speedFactor="0.93" vaporized="traci"/>
    <tripinfo id="randomCar_1716586452341855021" depart="25.00" departLane="-1568_1" departPos="5.34" departSpeed="0.00" departDelay="0.00" arrival="35.00" arrivalLane="-1568_1" arrivalPos="77.15" arrivalSpeed="10.17" duration="10.00" routeLength="71.82" waitingTime="0.00" waitingCount="0" stopTime="0.00" timeLoss="2.29" rerouteNo="0" devices="tripinfo_randomCar_1716586452341855021" vType="vehicle.dodge.charger_police_2020" speedFactor="0.77" vaporized="traci"/>
    <tripinfo id="randomCar_1716586452342937322" depart="25.00" departLane="-1516_1" departPos="5.34" departSpeed="0.00" departDelay="0.00" arrival="35.00" arrivalLane="-1537_1" arrivalPos="17.47" arrivalSpeed="9.33" duration="10.00" routeLength="53.88" waitingTime="0.00" waitingCount="0" stopTime="0.00" timeLoss="4.42" rerouteNo="0" devices="tripinfo_randomCar_1716586452342937322" vType="vehicle.dodge.charger_police_2020" speedFactor="0.95" vaporized="traci"/>
    <tripinfo id="randomCar_1716586452344108222" depart="25.00" departLane="-1465_1" departPos="5.34" departSpeed="0.00" departDelay="0.00" arrival="35.00" arrivalLane="-1464_1" arrivalPos="39.63" arrivalSpeed="6.41" duration="10.00" routeLength="54.10" waitingTime="0.00" waitingCount="0" stopTime="0.00" timeLoss="5.18" rerouteNo="0" devices="tripinfo_randomCar_1716586452344108222" vType="vehicle.dodge.charger_police_2020" speedFactor="1.02" vaporized="traci"/>
    <tripinfo id="randomCar_1716586452344794422" depart="25.00" departLane="-1486_1" departPos="5.34" departSpeed="0.00" departDelay="0.00" arrival="35.00" arrivalLane="-1472_1" arrivalPos="34.12" arrivalSpeed="14.74" duration="10.00" routeLength="85.54" waitingTime="0.00" waitingCount="0" stopTime="0.00" timeLoss="3.25" rerouteNo="0" devices="tripinfo_randomCar_1716586452344794422" vType="vehicle.dodge.charger_police_2020" speedFactor="1.07" vaporized="traci"/>
    <tripinfo id="randomCar_1716586452345862323" depart="25.00" departLane="-1494_1" departPos="0.20" departSpeed="0.00" departDelay="0.00" arrival="35.00" arrivalLane=":84_1_0" arrivalPos="3.64" arrivalSpeed="5.77" duration="10.00" routeLength="30.60" waitingTime="1.00" waitingCount="1" stopTime="0.00" timeLoss="5.77" rerouteNo="0" devices="tripinfo_randomCar_1716586452345862323" vType="vehicle.dodge.charger_police_2020" speedFactor="1.19" vaporized="traci"/>
    <tripinfo id="randomCar_1716586452346896623" depart="25.00" departLane="-1616_2" departPos="5.34" departSpeed="0.00" departDelay="0.00" arrival="35.00" arrivalLane="-1616_2" arrivalPos="67.40" arrivalSpeed="8.52" duration="10.00" routeLength="62.06" waitingTime="0.00" waitingCount="0" stopTime="0.00" timeLoss="2.00" rerouteNo="0" devices="tripinfo_randomCar_1716586452346896623" vType="vehicle.dodge.charger_police_2020" speedFactor="1.06" vaporized="traci"/>
    <tripinfo id="randomCar_1716586452347576723" depart="28.00" departLane="-1568_1" departPos="5.34" departSpeed="0.00" departDelay="3.00" arrival="35.00" arrivalLane="-1568_1" arrivalPos="39.89" arrivalSpeed="10.61" duration="7.00" routeLength="34.55" waitingTime="0.00" waitingCount="0" stopTime="0.00" timeLoss="3.23" rerouteNo="0" devices="tripinfo_randomCar_1716586452347576723" vType="vehicle.dodge.charger_police_2020" speedFactor="0.90" vaporized="traci"/>
    <tripinfo id="randomCar_1716586452349944224" depart="34.00" departLane="-1496_1" departPos="1.30" departSpeed="0.00" departDelay="9.00" arrival="35.00" arrivalLane="-1496_1" arrivalPos="1.30" arrivalSpeed="0.00" duration="1.00" routeLength="0.00" waitingTime="0.00" waitingCount="0" stopTime="0.00" timeLoss="0.00" rerouteNo="0" devices="tripinfo_randomCar_1716586452349944224" vType="vehicle.dodge.charger_police_2020" speedFactor="1.19" vaporized="traci"/>
    <tripinfo id="randomCar_1716586452352476025" depart="25.00" departLane="-1461_1" departPos="5.34" departSpeed="0.00" departDelay="0.00" arrival="35.00" arrivalLane="-1461_1" arrivalPos="88.18" arrivalSpeed="13.92" duration="10.00" routeLength="82.84" waitingTime="0.00" waitingCount="0" stopTime="0.00" timeLoss="3.31" rerouteNo="0" devices="tripinfo_randomCar_1716586452352476025" vType="vehicle.dodge.charger_police_2020" speedFactor="1.05" vaporized="traci"/>
    <tripinfo id="randomCar_1716586452354101226" depart="25.00" departLane="-1425_1" departPos="5.34" departSpeed="0.00" departDelay="0.00" arrival="35.00" arrivalLane=":39_3_1" arrivalPos="0.36" arrivalSpeed="4.46" duration="10.00" routeLength="65.20" waitingTime="0.00" waitingCount="0" stopTime="0.00" timeLoss="4.32" rerouteNo="0" devices="tripinfo_randomCar_1716586452354101226" vType="vehicle.dodge.charger_police_2020" speedFactor="1.07" vaporized="traci"/>
    <tripinfo id="randomCar_1716586452355388926" depart="26.00" departLane="-1511_1" departPos="0.20" departSpeed="0.00" departDelay="0.00" arrival="35.00" arrivalLane="-1504_1" arrivalPos="3.19" arrivalSpeed="4.60" duration="9.00" routeLength="39.57" waitingTime="0.00" waitingCount="0" stopTime="0.00" timeLoss="3.18" rerouteNo="0" devices="tripinfo_randomCar_1716586452355388926" vType="vehicle.dodge.charger_police_2020" speedFactor="1.00" vaporized="traci"/>
    <tripinfo id="randomCar_1716586452942888141" depart="26.00" departLane="-1520_1" departPos="5.34" departSpeed="0.00" departDelay="0.00" arrival="35.00" arrivalLane=":95_0_1" arrivalPos="13.63" arrivalSpeed="7.28" duration="9.00" routeLength="54.96" waitingTime="0.00" waitingCount="0" stopTime="0.00" timeLoss="2.99" rerouteNo="0" devices="tripinfo_randomCar_1716586452942888141" vType="vehicle.dodge.charger_police_2020" speedFactor="0.90" vaporized="traci"/>
    <tripinfo id="randomCar_1716586452945820642" depart="26.00" departLane="-1548_1" departPos="5.34" departSpeed="0.00" departDelay="0.00" arrival="35.00" arrivalLane="-1548_1" arrivalPos="66.55" arrivalSpeed="6.12" duration="9.00" routeLength="61.21" waitingTime="0.00" waitingCount="0" stopTime="0.00" timeLoss="4.14" rerouteNo="0" devices="tripinfo_randomCar_1716586452945820642" vType="vehicle.dodge.charger_police_2020" speedFactor="1.14" vaporized="traci"/>
    <tripinfo id="randomCar_1716586452948444943" depart="26.00" departLane="-1647_1" departPos="0.21" departSpeed="0.00" departDelay="0.00" arrival="35.00" arrivalLane="-1535_1" arrivalPos="3.43" arrivalSpeed="8.56" duration="9.00" routeLength="33.36" waitingTime="0.00" waitingCount="0" stopTime="0.00" timeLoss="5.20" rerouteNo="0" devices="tripinfo_randomCar_1716586452948444943" vType="vehicle.dodge.charger_police_2020" speedFactor="1.02" vaporized="traci"/>
    <tripinfo id="randomCar_1716586452951495944" depart="26.00" departLane="-1445_1" departPos="5.34" departSpeed="0.00" departDelay="0.00" arrival="35.00" arrivalLane="-1600_1" arrivalPos="6.30" arrivalSpeed="5.13" duration="9.00" routeLength="36.96" waitingTime="0.00" waitingCount="0" stopTime="0.00" timeLoss="4.70" rerouteNo="0" devices="tripinfo_randomCar_1716586452951495944" vType="vehicle.dodge.charger_police_2020" speedFactor="0.97" vaporized="traci"/>
    <tripinfo id="randomCar_1716586452954439645" depart="28.00" departLane="-1569_1" departPos="5.34" departSpeed="0.00" departDelay="2.00" arrival="35.00" arrivalLane="-1569_1" arrivalPos="43.01" arrivalSpeed="11.17" duration="7.00" routeLength="37.67" waitingTime="0.00" waitingCount="0" stopTime="0.00" timeLoss="3.49" rerouteNo="0" devices="tripinfo_randomCar_1716586452954439645" vType="vehicle.dodge.charger_police_2020" speedFactor="1.08" vaporized="traci"/>
    <tripinfo id="randomCar_1716586452957456546" depart="27.00" departLane="-1653_1" departPos="5.34" departSpeed="0.00" departDelay="1.00" arrival="35.00" arrivalLane=":132_3_2" arrivalPos="6.00" arrivalSpeed="8.77" duration="8.00" routeLength="44.02" waitingTime="0.00" waitingCount="0" stopTime="0.00" timeLoss="3.89" rerouteNo="0" devices="tripinfo_randomCar_1716586452957456546" vType="vehicle.dodge.charger_police_2020" speedFactor="1.12" vaporized="traci"/>
    <tripinfo id="randomCar_1716586452960439848" depart="26.00" departLane="-1630_1" departPos="5.34" departSpeed="0.00" departDelay="0.00" arrival="35.00" arrivalLane="-1630_1" arrivalPos="19.23" arrivalSpeed="0.00" duration="9.00" routeLength="13.89" waitingTime="3.00" waitingCount="1" stopTime="0.00" timeLoss="7.02" rerouteNo="0" devices="tripinfo_randomCar_1716586452960439848" vType="vehicle.dodge.charger_police_2020" speedFactor="1.02" vaporized="traci"/>
    <tripinfo id="randomCar_1716586452963264649" depart="26.00" departLane="-1410_1" departPos="5.34" departSpeed="0.00" departDelay="0.00" arrival="35.00" arrivalLane="-1409_1" arrivalPos="44.32" arrivalSpeed="13.04" duration="9.00" routeLength="72.04" waitingTime="0.00" waitingCount="0" stopTime="0.00" timeLoss="2.75" rerouteNo="0" devices="tripinfo_randomCar_1716586452963264649" vType="vehicle.dodge.charger_police_2020" speedFactor="0.99" vaporized="traci"/>
    <tripinfo id="randomCar_1716586452966278950" depart="26.00" departLane="-1617_1" departPos="5.34" departSpeed="0.00" departDelay="0.00" arrival="35.00" arrivalLane="-1617_1" arrivalPos="67.35" arrivalSpeed="11.42" duration="9.00" routeLength="62.01" waitingTime="0.00" waitingCount="0" stopTime="0.00" timeLoss="3.24" rerouteNo="0" devices="tripinfo_randomCar_1716586452966278950" vType="vehicle.dodge.charger_police_2020" speedFactor="0.94" vaporized="traci"/>
    <tripinfo id="randomCar_1716586452973038252" depart="26.00" departLane="-1522_1" departPos="5.34" departSpeed="0.00" departDelay="0.00" arrival="35.00" arrivalLane="-1522_1" arrivalPos="67.56" arrivalSpeed="12.47" duration="9.00" routeLength="62.22" waitingTime="0.00" waitingCount="0" stopTime="0.00" timeLoss="3.06" rerouteNo="0" devices="tripinfo_randomCar_1716586452973038252" vType="vehicle.dodge.charger_police_2020" speedFactor="0.91" vaporized="traci"/>
    <tripinfo id="randomCar_1716586452978114054" depart="26.00" departLane="-1464_1" departPos="5.34" departSpeed="0.00" departDelay="0.00" arrival="35.00" arrivalLane="-1462_1" arrivalPos="3.53" arrivalSpeed="6.84" duration="9.00" routeLength="50.59" waitingTime="0.00" waitingCount="0" stopTime="0.00" timeLoss="3.60" rerouteNo="0" devices="tripinfo_randomCar_1716586452978114054" vType="vehicle.dodge.charger_police_2020" speedFactor="0.91" vaporized="traci"/>
    <tripinfo id="randomCar_1716586452982947656" depart="26.00" departLane="-1561_1" departPos="1.09" departSpeed="0.00" departDelay="0.00" arrival="35.00" arrivalLane=":78_0_1" arrivalPos="1.67" arrivalSpeed="1.67" duration="9.00" routeLength="1.67" waitingTime="7.00" waitingCount="1" stopTime="0.00" timeLoss="7.76" rerouteNo="0" devices="tripinfo_randomCar_1716586452982947656" vType="vehicle.dodge.charger_police_2020" speedFactor="1.04" vaporized="traci"/>
    <tripinfo id="randomCar_1716586452988765758" depart="26.00" departLane="-1642_1" departPos="5.34" departSpeed="0.00" departDelay="0.00" arrival="35.00" arrivalLane="-1629_1" arrivalPos="15.53" arrivalSpeed="14.17" duration="9.00" routeLength="66.26" waitingTime="0.00" waitingCount="0" stopTime="0.00" timeLoss="3.33" rerouteNo="0" devices="tripinfo_randomCar_1716586452988765758" vType="vehicle.dodge.charger_police_2020" speedFactor="1.02" vaporized="traci"/>