<?xml version="1.0" encoding="UTF-8"?>

<!-- generated on 2024-05-25 02:23:01 by Eclipse SUMO GUI Version 1.12.0
<configuration xmlns:xsi="http://www.w3.org/2001/XMLSchema-instance" xsi:noNamespaceSchemaLocation="http://sumo.dlr.de/xsd/sumoConfiguration.xsd">

    <input>
        <net-file value="Adapters/co_simulation/sumo_configuration/simple-map/UA.net.xml"/>
        <route-files value="Adapters/co_simulation/sumo_configuration/simple-map/carlavtypes.rou.xml,Adapters/co_simulation/sumo_configuration/simple-map/resimulation.rou.xml"/>
    </input>

    <output>
        <tripinfo-output value="tripinfo.xml"/>
    </output>

    <traci_server>
        <remote-port value="53129"/>
        <num-clients value="1"/>
    </traci_server>

    <gui_only>
        <gui-settings-file value="Adapters/co_simulation/sumo_configuration/simple-map/simple-map.view.xml"/>
        <quit-on-end value="true"/>
    </gui_only>

</configuration>
-->

<tripinfos xmlns:xsi="http://www.w3.org/2001/XMLSchema-instance" xsi:noNamespaceSchemaLocation="http://sumo.dlr.de/xsd/tripinfo_file.xsd">
    <tripinfo id="0" depart="3.00" departLane="-1466_1" departPos="5.34" departSpeed="0.00" departDelay="0.00" arrival="63.00" arrivalLane="-1427_1" arrivalPos="658.50" arrivalSpeed="14.10" duration="60.00" routeLength="796.66" waitingTime="0.00" waitingCount="0" stopTime="0.00" timeLoss="5.81" rerouteNo="0" devices="tripinfo_0" vType="vehicle.dodge.charger_police_2020" speedFactor="1.06" vaporized=""/>
    <tripinfo id="randomCar_1716600131589697088" depart="227.00" departLane="-1656_1" departPos="1.57" departSpeed="0.00" departDelay="0.00" arrival="228.00" arrivalLane="-1656_1" arrivalPos="1.57" arrivalSpeed="1.57" duration="1.00" routeLength="0.00" waitingTime="0.00" waitingCount="0" stopTime="0.00" timeLoss="0.93" rerouteNo="0" devices="tripinfo_randomCar_1716600131589697088" vType="vehicle.dodge.charger_police_2020" speedFactor="0.86" vaporized=""/>
    <tripinfo id="randomCar_1716600132850758316" depart="229.00" departLane="-1497_1" departPos="1.67" departSpeed="0.00" departDelay="0.00" arrival="230.00" arrivalLane="-1497_1" arrivalPos="1.67" arrivalSpeed="1.43" duration="1.00" routeLength="0.00" waitingTime="0.00" waitingCount="0" stopTime="0.00" timeLoss="0.88" rerouteNo="0" devices="tripinfo_randomCar_1716600132850758316" vType="vehicle.dodge.charger_police_2020" speedFactor="0.87" vaporized=""/>
    <tripinfo id="randomCar_1716600129736341055" depart="224.00" departLane="-1649_1" departPos="0.20" departSpeed="0.00" departDelay="0.00" arrival="236.00" arrivalLane="-1474_1" arrivalPos="118.69" arrivalSpeed="20.15" duration="12.00" routeLength="139.60" waitingTime="0.00" waitingCount="0" stopTime="0.00" timeLoss="4.35" rerouteNo="0" devices="tripinfo_randomCar_1716600129736341055" vType="vehicle.dodge.charger_police_2020" speedFactor="0.94" vaporized=""/>
    <tripinfo id="randomCar_1716600133472894610" depart="230.00" departLane="-1492_1" departPos="3.46" departSpeed="0.00" departDelay="0.00" arrival="241.00" arrivalLane="-1495_1" arrivalPos="2.09" arrivalSpeed="6.59" duration="11.00" routeLength="25.94" waitingTime="3.00" waitingCount="1" stopTime="0.00" timeLoss="7.89" rerouteNo="0" devices="tripinfo_randomCar_1716600133472894610" vType="vehicle.dodge.charger_police_2020" speedFactor="0.97" vaporized=""/>
    <tripinfo id="randomCar_1716600135370334946" depart="233.00" departLane="-1609_1" departPos="5.34" departSpeed="0.00" departDelay="0.00" arrival="241.00" arrivalLane="-1609_1" arrivalPos="60.92" arrivalSpeed="13.18" duration="8.00" routeLength="55.58" waitingTime="0.00" waitingCount="0" stopTime="0.00" timeLoss="3.24" rerouteNo="0" devices="tripinfo_randomCar_1716600135370334946" vType="vehicle.dodge.charger_police_2020" speedFactor="0.98" vaporized=""/>
    <tripinfo id="randomCar_1716600135976261955" depart="235.00" departLane="-1500_0" departPos="0.20" departSpeed="0.00" departDelay="0.00" arrival="241.00" arrivalLane="-1492_1" arrivalPos="3.46" arrivalSpeed="10.17" duration="6.00" routeLength="27.63" waitingTime="0.00" waitingCount="0" stopTime="0.00" timeLoss="3.71" rerouteNo="0" devices="tripinfo_randomCar_1716600135976261955" vType="vehicle.dodge.charger_police_2020" speedFactor="1.10" vaporized=""/>
    <tripinfo id="randomCar_1716600131596360178" depart="227.00" departLane="-1551_1" departPos="5.34" departSpeed="0.00" departDelay="0.00" arrival="245.00" arrivalLane="-1492_1" arrivalPos="3.46" arrivalSpeed="8.33" duration="18.00" routeLength="105.89" waitingTime="1.00" waitingCount="1" stopTime="0.00" timeLoss="13.46" rerouteNo="0" devices="tripinfo_randomCar_1716600131596360178" vType="vehicle.dodge.charger_police_2020" speedFactor="1.09" vaporized=""/>
    <tripinfo id="randomCar_1716600133453062984" depart="230.00" departLane="-1487_0" departPos="0.20" departSpeed="0.00" departDelay="0.00" arrival="249.00" arrivalLane="-1566_1" arrivalPos="153.70" arrivalSpeed="12.87" duration="19.00" routeLength="192.00" waitingTime="0.00" waitingCount="0" stopTime="0.00" timeLoss="2.81" rerouteNo="0" devices="tripinfo_randomCar_1716600133453062984" vType="vehicle.dodge.charger_police_2020" speedFactor="0.93" vaporized=""/>
    <tripinfo id="randomCar_1716600136581830560" depart="235.00" departLane="-1491_1" departPos="1.69" departSpeed="0.00" departDelay="0.00" arrival="251.00" arrivalLane="-1456_1" arrivalPos="34.14" arrivalSpeed="13.45" duration="16.00" routeLength="76.57" waitingTime="3.00" waitingCount="1" stopTime="0.00" timeLoss="9.42" rerouteNo="0" devices="tripinfo_randomCar_1716600136581830560" vType="vehicle.dodge.charger_police_2020" speedFactor="1.06" vaporized=""/>
    <tripinfo id="randomCar_1716600135965706935" depart="234.00" departLane="-1488_0" departPos="0.20" departSpeed="0.00" departDelay="0.00" arrival="253.00" arrivalLane="-1415_0" arrivalPos="87.23" arrivalSpeed="20.19" duration="19.00" routeLength="128.57" waitingTime="0.00" waitingCount="0" stopTime="0.00" timeLoss="12.55" rerouteNo="0" devices="tripinfo_randomCar_1716600135965706935" vType="vehicle.dodge.charger_police_2020" speedFactor="1.09" vaporized=""/>
    <tripinfo id="randomCar_1716600135979487892" depart="234.00" departLane="-1636_1" departPos="5.34" departSpeed="0.00" departDelay="0.00" arrival="255.00" arrivalLane="-1645_1" arrivalPos="257.55" arrivalSpeed="24.64" duration="21.00" routeLength="374.15" waitingTime="0.00" waitingCount="0" stopTime="0.00" timeLoss="5.63" rerouteNo="0" devices="tripinfo_randomCar_1716600135979487892" vType="vehicle.dodge.charger_police_2020" speedFactor="1.12" vaporized=""/>
    <tripinfo id="randomCar_1716600130352584355" depart="225.00" departLane="-1610_1" departPos="5.34" departSpeed="0.00" departDelay="0.00" arrival="258.00" arrivalLane="-1637_1" arrivalPos="51.65" arrivalSpeed="13.04" duration="33.00" routeLength="363.48" waitingTime="0.00" waitingCount="0" stopTime="0.00" timeLoss="6.01" rerouteNo="0" devices="tripinfo_randomCar_1716600130352584355" vType="vehicle.dodge.charger_police_2020" speedFactor="1.03" vaporized=""/>
    <tripinfo id="randomCar_1716600135997956103" depart="234.00" departLane="-1624_1" departPos="5.34" departSpeed="0.00" departDelay="0.00" arrival="259.00" arrivalLane="-1522_2" arrivalPos="192.08" arrivalSpeed="14.33" duration="25.00" routeLength="256.59" waitingTime="0.00" waitingCount="0" stopTime="0.00" timeLoss="7.29" rerouteNo="0" devices="tripinfo_randomCar_1716600135997956103" vType="vehicle.dodge.charger_police_2020" speedFactor="1.07" vaporized=""/>
    <tripinfo id="randomCar_1716600136022457082" depart="235.00" departLane="-1603_1" departPos="0.20" departSpeed="0.00" departDelay="0.00" arrival="267.00" arrivalLane="-1455_1" arrivalPos="3.17" arrivalSpeed="7.44" duration="32.00" routeLength="213.64" waitingTime="1.00" waitingCount="1" stopTime="0.00" timeLoss="16.31" rerouteNo="0" devices="tripinfo_randomCar_1716600136022457082" vType="vehicle.dodge.charger_police_2020" speedFactor="1.00" vaporized=""/>
    <tripinfo id="randomCar_1716600136031096380" depart="247.00" departLane="-1604_1" departPos="5.34" departSpeed="0.00" departDelay="3.00" arrival="268.00" arrivalLane="-1595_1" arrivalPos="23.12" arrivalSpeed="13.82" duration="21.00" routeLength="189.48" waitingTime="0.00" waitingCount="0" stopTime="0.00" timeLoss="6.25" rerouteNo="0" devices="tripinfo_randomCar_1716600136031096380" vType="vehicle.dodge.charger_police_2020" speedFactor="1.00" vaporized=""/>
    <tripinfo id="randomCar_1716600136584437890" depart="242.00" departLane="-1603_1" departPos="0.20" departSpeed="0.00" departDelay="0.00" arrival="270.00" arrivalLane="-1455_1" arrivalPos="3.17" arrivalSpeed="9.86" duration="28.00" routeLength="213.64" waitingTime="0.00" waitingCount="0" stopTime="0.00" timeLoss="13.83" rerouteNo="0" devices="tripinfo_randomCar_1716600136584437890" vType="vehicle.dodge.charger_police_2020" speedFactor="1.13" vaporized=""/>
    <tripinfo id="randomCar_1716600135951723175" depart="234.00" departLane="-1552_1" departPos="5.34" departSpeed="0.00" departDelay="0.00" arrival="275.00" arrivalLane="-1539_1" arrivalPos="6.82" arrivalSpeed="6.40" duration="41.00" routeLength="276.64" waitingTime="1.00" waitingCount="1" stopTime="0.00" timeLoss="17.26" rerouteNo="0" devices="tripinfo_randomCar_1716600135951723175" vType="vehicle.dodge.charger_police_2020" speedFactor="0.89" vaporized=""/>
    <tripinfo id="randomCar_1716600134092004369" depart="231.00" departLane="-1511_1" departPos="0.20" departSpeed="0.00" departDelay="0.00" arrival="279.00" arrivalLane="-1617_1" arrivalPos="77.93" arrivalSpeed="12.99" duration="48.00" routeLength="418.61" waitingTime="0.00" waitingCount="0" stopTime="0.00" timeLoss="13.56" rerouteNo="0" devices="tripinfo_randomCar_1716600134092004369" vType="vehicle.dodge.charger_police_2020" speedFactor="1.17" vaporized=""/>
    <tripinfo id="randomCar_1716600132224299572" depart="228.00" departLane="-1613_1" departPos="5.34" departSpeed="0.00" departDelay="0.00" arrival="281.00" arrivalLane="-1541_1" arrivalPos="0.20" arrivalSpeed="6.37" duration="53.00" routeLength="504.40" waitingTime="0.00" waitingCount="0" stopTime="0.00" timeLoss="15.03" rerouteNo="0" devices="tripinfo_randomCar_1716600132224299572" vType="vehicle.dodge.charger_police_2020" speedFactor="0.99" vaporized=""/>
    <tripinfo id="randomCar_1716600130347421208" depart="225.00" departLane="-1647_1" departPos="0.21" departSpeed="0.00" departDelay="0.00" arrival="286.00" arrivalLane="-1533_1" arrivalPos="68.87" arrivalSpeed="7.92" duration="61.00" routeLength="606.76" waitingTime="0.00" waitingCount="0" stopTime="0.00" timeLoss="17.90" rerouteNo="0" devices="tripinfo_randomCar_1716600130347421208" vType="vehicle.dodge.charger_police_2020" speedFactor="1.01" vaporized=""/>
    <tripinfo id="randomCar_1716600134751021184" depart="232.00" departLane="-1603_1" departPos="0.20" departSpeed="0.00" departDelay="0.00" arrival="289.00" arrivalLane="-1628_1" arrivalPos="30.67" arrivalSpeed="12.18" duration="57.00" routeLength="532.69" waitingTime="0.00" waitingCount="0" stopTime="0.00" timeLoss="11.43" rerouteNo="0" devices="tripinfo_randomCar_1716600134751021184" vType="vehicle.dodge.charger_police_2020" speedFactor="0.91" vaporized=""/>
    <tripinfo id="randomCar_1716600135962743301" depart="234.00" departLane="-1613_1" departPos="5.34" departSpeed="0.00" departDelay="0.00" arrival="291.00" arrivalLane="-1535_1" arrivalPos="5.28" arrivalSpeed="9.59" duration="57.00" routeLength="456.27" waitingTime="0.00" waitingCount="0" stopTime="0.00" timeLoss="15.43" rerouteNo="0" devices="tripinfo_randomCar_1716600135962743301" vType="vehicle.dodge.charger_police_2020" speedFactor="0.83" vaporized=""/>
    <tripinfo id="randomCar_1716600133451446165" depart="230.00" departLane="-1507_1" departPos="5.34" departSpeed="0.00" departDelay="0.00" arrival="294.00" arrivalLane="-1589_1" arrivalPos="47.64" arrivalSpeed="12.03" duration="64.00" routeLength="688.85" waitingTime="0.00" waitingCount="0" stopTime="0.00" timeLoss="9.63" rerouteNo="0" devices="tripinfo_randomCar_1716600133451446165" vType="vehicle.dodge.charger_police_2020" speedFactor="0.95" vaporized=""/>
    <tripinfo id="randomCar_1716600131602639857" depart="232.00" departLane="-1434_1" departPos="0.20" departSpeed="0.00" departDelay="0.00" arrival="295.00" arrivalLane="-1433_1" arrivalPos="10.24" arrivalSpeed="14.18" duration="63.00" routeLength="232.50" waitingTime="32.00" waitingCount="1" stopTime="0.00" timeLoss="46.70" rerouteNo="0" devices="tripinfo_randomCar_1716600131602639857" vType="vehicle.dodge.charger_police_2020" speedFactor="1.10" vaporized=""/>
    <tripinfo id="randomCar_1716600133463245500" depart="232.00" departLane="-1505_1" departPos="0.20" departSpeed="0.00" departDelay="0.00" arrival="299.00" arrivalLane="-1644_1" arrivalPos="59.90" arrivalSpeed="13.80" duration="67.00" routeLength="618.68" waitingTime="0.00" waitingCount="0" stopTime="0.00" timeLoss="17.61" rerouteNo="0" devices="tripinfo_randomCar_1716600133463245500" vType="vehicle.dodge.charger_police_2020" speedFactor="1.00" vaporized=""/>
    <tripinfo id="randomCar_1716600135949979455" depart="234.00" departLane="-1504_1" departPos="5.34" departSpeed="0.00" departDelay="0.00" arrival="304.00" arrivalLane="-1599_1" arrivalPos="63.53" arrivalSpeed="10.81" duration="70.00" routeLength="726.75" waitingTime="0.00" waitingCount="0" stopTime="0.00" timeLoss="15.59" rerouteNo="0" devices="tripinfo_randomCar_1716600135949979455" vType="vehicle.dodge.charger_police_2020" speedFactor="1.02" vaporized=""/>
    <tripinfo id="randomCar_1716600134757330656" depart="232.00" departLane="-1651_1" departPos="5.34" departSpeed="0.00" departDelay="0.00" arrival="305.00" arrivalLane="-1556_1" arrivalPos="74.30" arrivalSpeed="13.34" duration="73.00" routeLength="811.99" waitingTime="0.00" waitingCount="0" stopTime="0.00" timeLoss="12.93" rerouteNo="0" devices="tripinfo_randomCar_1716600134757330656" vType="vehicle.dodge.charger_police_2020" speedFactor="1.02" vaporized=""/>
    <tripinfo id="randomCar_1716600134733350083" depart="232.00" departLane="-1529_1" departPos="5.34" departSpeed="0.00" departDelay="0.00" arrival="306.00" arrivalLane="-1602_1" arrivalPos="151.23" arrivalSpeed="12.53" duration="74.00" routeLength="636.76" waitingTime="0.00" waitingCount="0" stopTime="0.00" timeLoss="15.80" rerouteNo="0" devices="tripinfo_randomCar_1716600134733350083" vType="vehicle.dodge.charger_police_2020" speedFactor="0.97" vaporized=""/>
    <tripinfo id="randomCar_1716600135971991206" depart="234.00" departLane="-1637_1" departPos="5.34" departSpeed="0.00" departDelay="0.00" arrival="307.00" arrivalLane="-1555_1" arrivalPos="86.49" arrivalSpeed="13.53" duration="73.00" routeLength="771.00" waitingTime="0.00" waitingCount="0" stopTime="0.00" timeLoss="16.44" rerouteNo="0" devices="tripinfo_randomCar_1716600135971991206" vType="vehicle.dodge.charger_police_2020" speedFactor="1.06" vaporized=""/>
    <tripinfo id="randomCar_1716600135338162779" depart="233.00" departLane="-1664_1" departPos="5.34" departSpeed="0.00" departDelay="0.00" arrival="309.00" arrivalLane="-1513_2" arrivalPos="41.86" arrivalSpeed="14.96" duration="76.00" routeLength="222.93" waitingTime="37.00" waitingCount="1" stopTime="0.00" timeLoss="57.85" rerouteNo="0" devices="tripinfo_randomCar_1716600135338162779" vType="vehicle.dodge.charger_police_2020" speedFactor="1.09" vaporized=""/>
    <tripinfo id="randomCar_1716600135324916028" depart="233.00" departLane="-1606_1" departPos="5.34" departSpeed="0.00" departDelay="0.00" arrival="310.00" arrivalLane="-1391_1" arrivalPos="183.09" arrivalSpeed="8.92" duration="77.00" routeLength="716.94" waitingTime="0.00" waitingCount="0" stopTime="0.00" timeLoss="23.78" rerouteNo="0" devices="tripinfo_randomCar_1716600135324916028" vType="vehicle.dodge.charger_police_2020" speedFactor="0.98" vaporized=""/>
    <tripinfo id="randomCar_1716600134741963581" depart="232.00" departLane="-1638_1" departPos="5.34" departSpeed="0.00" departDelay="0.00" arrival="311.00" arrivalLane="-1486_1" arrivalPos="44.61" arrivalSpeed="15.20" duration="79.00" routeLength="399.14" waitingTime="36.00" waitingCount="2" stopTime="0.00" timeLoss="51.54" rerouteNo="0" devices="tripinfo_randomCar_1716600134741963581" vType="vehicle.dodge.charger_police_2020" speedFactor="1.12" vaporized=""/>
    <tripinfo id="randomCar_1716600136557965388" depart="235.00" departLane="-1538_1" departPos="5.34" departSpeed="0.00" departDelay="0.00" arrival="318.00" arrivalLane="-1507_1" arrivalPos="287.80" arrivalSpeed="13.86" duration="83.00" routeLength="765.41" waitingTime="1.00" waitingCount="1" stopTime="0.00" timeLoss="29.47" rerouteNo="0" devices="tripinfo_randomCar_1716600136557965388" vType="vehicle.dodge.charger_police_2020" speedFactor="1.07" vaporized=""/>
    <tripinfo id="randomCar_1716600132838132672" depart="229.00" departLane="-1472_1" departPos="5.34" departSpeed="0.00" departDelay="0.00" arrival="324.00" arrivalLane="-1533_1" arrivalPos="68.87" arrivalSpeed="16.06" duration="95.00" routeLength="556.56" waitingTime="35.00" waitingCount="2" stopTime="0.00" timeLoss="58.99" rerouteNo="0" devices="tripinfo_randomCar_1716600132838132672" vType="vehicle.dodge.charger_police_2020" speedFactor="1.16" vaporized=""/>
    <tripinfo id="randomCar_1716600132847209475" depart="229.00" departLane="-1610_1" departPos="5.34" departSpeed="0.00" departDelay="0.00" arrival="326.00" arrivalLane="-1589_1" arrivalPos="47.64" arrivalSpeed="12.19" duration="97.00" routeLength="906.20" waitingTime="0.00" waitingCount="0" stopTime="0.00" timeLoss="19.36" rerouteNo="0" devices="tripinfo_randomCar_1716600132847209475" vType="vehicle.dodge.charger_police_2020" speedFactor="0.89" vaporized=""/>
    <tripinfo id="randomCar_1716600134755299133" depart="232.00" departLane="-1540_1" departPos="5.34" departSpeed="0.00" departDelay="0.00" arrival="326.00" arrivalLane="-1594_1" arrivalPos="0.20" arrivalSpeed="7.60" duration="94.00" routeLength="257.17" waitingTime="53.00" waitingCount="2" stopTime="0.00" timeLoss="75.04" rerouteNo="0" devices="tripinfo_randomCar_1716600134755299133" vType="vehicle.dodge.charger_police_2020" speedFactor="1.04" vaporized=""/>
    <tripinfo id="randomCar_1716600133459146553" depart="231.00" departLane="-1613_1" departPos="5.34" departSpeed="0.00" departDelay="0.00" arrival="330.00" arrivalLane="-1628_1" arrivalPos="30.67" arrivalSpeed="12.12" duration="99.00" routeLength="909.93" waitingTime="2.00" waitingCount="1" stopTime="0.00" timeLoss="33.48" rerouteNo="0" devices="tripinfo_randomCar_1716600133459146553" vType="vehicle.dodge.charger_police_2020" speedFactor="1.03" vaporized=""/>
    <tripinfo id="randomCar_1716600134750182074" depart="235.00" departLane="-1642_1" departPos="5.34" departSpeed="0.00" departDelay="0.00" arrival="332.00" arrivalLane="-1532_1" arrivalPos="107.18" arrivalSpeed="15.01" duration="97.00" routeLength="752.85" waitingTime="18.00" waitingCount="1" stopTime="0.00" timeLoss="47.90" rerouteNo="0" devices="tripinfo_randomCar_1716600134750182074" vType="vehicle.dodge.charger_police_2020" speedFactor="1.10" vaporized=""/>
    <tripinfo id="randomCar_1716600136552872430" depart="244.00" departLane="-1537_1" departPos="5.34" departSpeed="0.00" departDelay="0.00" arrival="341.00" arrivalLane="-1536_1" arrivalPos="7.78" arrivalSpeed="5.95" duration="97.00" routeLength="192.53" waitingTime="58.00" waitingCount="2" stopTime="0.00" timeLoss="80.11" rerouteNo="0" devices="tripinfo_randomCar_1716600136552872430" vType="vehicle.dodge.charger_police_2020" speedFactor="0.97" vaporized=""/>
    <tripinfo id="randomCar_1716600134084492884" depart="231.00" departLane="-1627_1" departPos="5.34" departSpeed="0.00" departDelay="0.00" arrival="348.00" arrivalLane="-1583_2" arrivalPos="0.20" arrivalSpeed="6.78" duration="117.00" routeLength="852.27" waitingTime="17.00" waitingCount="1" stopTime="0.00" timeLoss="49.45" rerouteNo="0" devices="tripinfo_randomCar_1716600134084492884" vType="vehicle.dodge.charger_police_2020" speedFactor="1.09" vaporized=""/>
</tripinfos>
