<?xml version="1.0" encoding="UTF-8"?>

<!-- generated on 2024-05-24 21:25:26 by Eclipse SUMO GUI Version 1.12.0
<configuration xmlns:xsi="http://www.w3.org/2001/XMLSchema-instance" xsi:noNamespaceSchemaLocation="http://sumo.dlr.de/xsd/sumoConfiguration.xsd">

    <input>
        <net-file value="Adapters/co_simulation/sumo_configuration/simple-map/UA.net.xml"/>
        <route-files value="Adapters/co_simulation/sumo_configuration/simple-map/carlavtypes.rou.xml,Adapters/co_simulation/sumo_configuration/simple-map/simple-map.rou.xml"/>
    </input>

    <output>
        <tripinfo-output value="tripinfo.xml"/>
    </output>

    <traci_server>
        <remote-port value="40985"/>
        <num-clients value="1"/>
    </traci_server>

    <gui_only>
        <gui-settings-file value="Adapters/co_simulation/sumo_configuration/simple-map/simple-map.view.xml"/>
        <quit-on-end value="true"/>
    </gui_only>

</configuration>
-->

<tripinfos xmlns:xsi="http://www.w3.org/2001/XMLSchema-instance" xsi:noNamespaceSchemaLocation="http://sumo.dlr.de/xsd/tripinfo_file.xsd">
    <tripinfo id="0" depart="3.00" departLane="-1466_1" departPos="5.34" departSpeed="0.00" departDelay="0.00" arrival="23.00" arrivalLane="-1427_1" arrivalPos="81.02" arrivalSpeed="13.65" duration="20.00" routeLength="219.19" waitingTime="0.00" waitingCount="0" stopTime="0.00" timeLoss="4.11" rerouteNo="0" devices="tripinfo_0" vType="vehicle.dodge.charger_police_2020" speedFactor="1.06" vaporized="traci"/>
    <tripinfo id="randomCar_1716582334989554090" depart="13.00" departLane="-1546_1" departPos="5.34" departSpeed="0.00" departDelay="0.00" arrival="23.00" arrivalLane=":25_0_1" arrivalPos="4.42" arrivalSpeed="5.44" duration="10.00" routeLength="67.83" waitingTime="0.00" waitingCount="0" stopTime="0.00" timeLoss="2.71" rerouteNo="0" devices="tripinfo_randomCar_1716582334989554090" vType="vehicle.dodge.charger_police_2020" speedFactor="0.84" vaporized="traci"/>
    <tripinfo id="randomCar_1716582334996923833" depart="13.00" departLane="-1542_1" departPos="1.20" departSpeed="0.00" departDelay="0.00" arrival="23.00" arrivalLane=":115_0_1" arrivalPos="6.15" arrivalSpeed="3.94" duration="10.00" routeLength="26.44" waitingTime="0.00" waitingCount="0" stopTime="0.00" timeLoss="6.59" rerouteNo="0" devices="tripinfo_randomCar_1716582334996923833" vType="vehicle.dodge.charger_police_2020" speedFactor="1.20" vaporized="traci"/>
    <tripinfo id="randomCar_1716582334999808084" depart="13.00" departLane="-1495_1" departPos="2.34" departSpeed="0.00" departDelay="0.00" arrival="23.00" arrivalLane="-1626_1" arrivalPos="22.85" arrivalSpeed="10.76" duration="10.00" routeLength="68.90" waitingTime="0.00" waitingCount="0" stopTime="0.00" timeLoss="3.09" rerouteNo="0" devices="tripinfo_randomCar_1716582334999808084" vType="vehicle.dodge.charger_police_2020" speedFactor="0.84" vaporized="traci"/>
    <tripinfo id="randomCar_1716582335001845262" depart="13.00" departLane="-1580_1" departPos="5.34" departSpeed="0.00" departDelay="0.00" arrival="23.00" arrivalLane="-1580_1" arrivalPos="89.01" arrivalSpeed="12.93" duration="10.00" routeLength="83.67" waitingTime="0.00" waitingCount="0" stopTime="0.00" timeLoss="2.95" rerouteNo="0" devices="tripinfo_randomCar_1716582335001845262" vType="vehicle.dodge.charger_police_2020" speedFactor="1.00" vaporized="traci"/>
    <tripinfo id="randomCar_1716582335005397572" depart="14.00" departLane="-1437_1" departPos="5.34" departSpeed="0.00" departDelay="0.00" arrival="23.00" arrivalLane="-1576_1" arrivalPos="12.81" arrivalSpeed="7.51" duration="9.00" routeLength="49.03" waitingTime="0.00" waitingCount="0" stopTime="0.00" timeLoss="3.63" rerouteNo="0" devices="tripinfo_randomCar_1716582335005397572" vType="vehicle.dodge.charger_police_2020" speedFactor="0.89" vaporized="traci"/>
    <tripinfo id="randomCar_1716582335610621772" depart="14.00" departLane="-1444_1" departPos="5.34" departSpeed="0.00" departDelay="0.00" arrival="23.00" arrivalLane=":55_0_1" arrivalPos="4.66" arrivalSpeed="11.55" duration="9.00" routeLength="62.69" waitingTime="0.00" waitingCount="0" stopTime="0.00" timeLoss="3.19" rerouteNo="0" devices="tripinfo_randomCar_1716582335610621772" vType="vehicle.dodge.charger_police_2020" speedFactor="0.94" vaporized="traci"/>
    <tripinfo id="randomCar_1716582335616120752" depart="14.00" departLane="-1556_2" departPos="5.34" departSpeed="0.00" departDelay="0.00" arrival="23.00" arrivalLane="-1556_1" arrivalPos="64.16" arrivalSpeed="11.19" duration="9.00" routeLength="58.82" waitingTime="0.00" waitingCount="0" stopTime="0.00" timeLoss="3.06" rerouteNo="0" devices="tripinfo_randomCar_1716582335616120752" vType="vehicle.dodge.charger_police_2020" speedFactor="0.86" vaporized="traci"/>
    <tripinfo id="randomCar_1716582335623225272" depart="14.00" departLane="-1605_1" departPos="2.67" departSpeed="0.00" departDelay="0.00" arrival="23.00" arrivalLane="-1474_1" arrivalPos="7.78" arrivalSpeed="12.29" duration="9.00" routeLength="59.07" waitingTime="0.00" waitingCount="0" stopTime="0.00" timeLoss="3.13" rerouteNo="0" devices="tripinfo_randomCar_1716582335623225272" vType="vehicle.dodge.charger_police_2020" speedFactor="1.09" vaporized="traci"/>
    <tripinfo id="randomCar_1716582335628623343" depart="14.00" departLane="-1531_1" departPos="5.34" departSpeed="0.00" departDelay="0.00" arrival="23.00" arrivalLane="-1531_1" arrivalPos="77.00" arrivalSpeed="14.10" duration="9.00" routeLength="71.67" waitingTime="0.00" waitingCount="0" stopTime="0.00" timeLoss="2.97" rerouteNo="0" devices="tripinfo_randomCar_1716582335628623343" vType="vehicle.dodge.charger_police_2020" speedFactor="1.03" vaporized="traci"/>
    <tripinfo id="randomCar_1716582335633371757" depart="14.00" departLane="-1552_2" departPos="5.34" departSpeed="0.00" departDelay="0.00" arrival="23.00" arrivalLane="-1552_2" arrivalPos="14.12" arrivalSpeed="0.00" duration="9.00" routeLength="8.78" waitingTime="4.00" waitingCount="1" stopTime="0.00" timeLoss="7.40" rerouteNo="0" devices="tripinfo_randomCar_1716582335633371757" vType="vehicle.dodge.charger_police_2020" speedFactor="1.05" vaporized="traci"/>
    <tripinfo id="randomCar_1716582335637932255" depart="14.00" departLane="-1439_1" departPos="0.20" departSpeed="0.00" departDelay="0.00" arrival="23.00" arrivalLane="-1589_1" arrivalPos="43.03" arrivalSpeed="11.57" duration="9.00" routeLength="66.83" waitingTime="0.00" waitingCount="0" stopTime="0.00" timeLoss="2.42" rerouteNo="0" devices="tripinfo_randomCar_1716582335637932255" vType="vehicle.dodge.charger_police_2020" speedFactor="1.12" vaporized="traci"/>
    <tripinfo id="randomCar_1716582335643227617" depart="14.00" departLane="-1657_1" departPos="0.48" departSpeed="0.00" departDelay="0.00" arrival="23.00" arrivalLane="-1509_1" arrivalPos="3.50" arrivalSpeed="13.16" duration="9.00" routeLength="65.80" waitingTime="0.00" waitingCount="0" stopTime="0.00" timeLoss="3.24" rerouteNo="0" devices="tripinfo_randomCar_1716582335643227617" vType="vehicle.dodge.charger_police_2020" speedFactor="0.99" vaporized="traci"/>
    <tripinfo id="randomCar_1716582335648257656" depart="14.00" departLane="-1649_1" departPos="0.20" departSpeed="0.00" departDelay="0.00" arrival="23.00" arrivalLane=":103_2_1" arrivalPos="6.12" arrivalSpeed="6.45" duration="9.00" routeLength="47.83" waitingTime="0.00" waitingCount="0" stopTime="0.00" timeLoss="2.69" rerouteNo="0" devices="tripinfo_randomCar_1716582335648257656" vType="vehicle.dodge.charger_police_2020" speedFactor="0.93" vaporized="traci"/>
    <tripinfo id="randomCar_1716582335653039373" depart="14.00" departLane="-1563_1" departPos="5.34" departSpeed="0.00" departDelay="0.00" arrival="23.00" arrivalLane="-1666_1" arrivalPos="10.19" arrivalSpeed="7.07" duration="9.00" routeLength="39.10" waitingTime="0.00" waitingCount="0" stopTime="0.00" timeLoss="3.01" rerouteNo="0" devices="tripinfo_randomCar_1716582335653039373" vType="vehicle.dodge.charger_police_2020" speedFactor="0.88" vaporized="traci"/>
    <tripinfo id="randomCar_1716582335655291269" depart="14.00" departLane="-1500_0" departPos="0.20" departSpeed="0.00" departDelay="0.00" arrival="23.00" arrivalLane="-1456_1" arrivalPos="10.25" arrivalSpeed="10.32" duration="9.00" routeLength="52.68" waitingTime="0.00" waitingCount="0" stopTime="0.00" timeLoss="2.62" rerouteNo="0" devices="tripinfo_randomCar_1716582335655291269" vType="vehicle.dodge.charger_police_2020" speedFactor="0.94" vaporized="traci"/>
    <tripinfo id="randomCar_1716582335657810089" depart="16.00" departLane="-1499_0" departPos="0.20" departSpeed="0.00" departDelay="2.00" arrival="23.00" arrivalLane="-1492_1" arrivalPos="2.13" arrivalSpeed="8.20" duration="7.00" routeLength="28.39" waitingTime="0.00" waitingCount="0" stopTime="0.00" timeLoss="3.09" rerouteNo="0" devices="tripinfo_randomCar_1716582335657810089" vType="vehicle.dodge.charger_police_2020" speedFactor="0.94" vaporized="traci"/>
    <tripinfo id="randomCar_1716582335659620447" depart="15.00" departLane="-1517_1" departPos="5.34" departSpeed="0.00" departDelay="0.00" arrival="23.00" arrivalLane="-1537_1" arrivalPos="29.80" arrivalSpeed="10.68" duration="8.00" routeLength="45.75" waitingTime="0.00" waitingCount="0" stopTime="0.00" timeLoss="3.09" rerouteNo="0" devices="tripinfo_randomCar_1716582335659620447" vType="vehicle.dodge.charger_police_2020" speedFactor="1.08" vaporized="traci"/>
    <tripinfo id="randomCar_1716582336230902486" depart="15.00" departLane="-1476_1" departPos="5.34" departSpeed="0.00" departDelay="0.00" arrival="23.00" arrivalLane="-1476_1" arrivalPos="54.25" arrivalSpeed="10.07" duration="8.00" routeLength="48.92" waitingTime="0.00" waitingCount="0" stopTime="0.00" timeLoss="2.62" rerouteNo="0" devices="tripinfo_randomCar_1716582336230902486" vType="vehicle.dodge.charger_police_2020" speedFactor="0.80" vaporized="traci"/>
    <tripinfo id="randomCar_1716582336239187109" depart="15.00" departLane="-1445_1" departPos="5.34" departSpeed="0.00" departDelay="0.00" arrival="23.00" arrivalLane="-1600_1" arrivalPos="0.59" arrivalSpeed="3.77" duration="8.00" routeLength="31.24" waitingTime="0.00" waitingCount="0" stopTime="0.00" timeLoss="4.23" rerouteNo="0" devices="tripinfo_randomCar_1716582336239187109" vType="vehicle.dodge.charger_police_2020" speedFactor="1.03" vaporized="traci"/>
    <tripinfo id="randomCar_1716582336244815100" depart="16.00" departLane="-1495_1" departPos="2.34" departSpeed="0.00" departDelay="1.00" arrival="23.00" arrivalLane="-1456_1" arrivalPos="31.53" arrivalSpeed="10.99" duration="7.00" routeLength="36.14" waitingTime="0.00" waitingCount="0" stopTime="0.00" timeLoss="3.49" rerouteNo="0" devices="tripinfo_randomCar_1716582336244815100" vType="vehicle.dodge.charger_police_2020" speedFactor="1.04" vaporized="traci"/>
    <tripinfo id="randomCar_1716582336249141777" depart="15.00" departLane="-1527_1" departPos="5.34" departSpeed="0.00" departDelay="0.00" arrival="23.00" arrivalLane="-1527_1" arrivalPos="58.21" arrivalSpeed="13.49" duration="8.00" routeLength="52.87" waitingTime="0.00" waitingCount="0" stopTime="0.00" timeLoss="3.23" rerouteNo="0" devices="tripinfo_randomCar_1716582336249141777" vType="vehicle.dodge.charger_police_2020" speedFactor="1.01" vaporized="traci"/>
    <tripinfo id="randomCar_1716582336254090909" depart="15.00" departLane="-1558_1" departPos="5.34" departSpeed="0.00" departDelay="0.00" arrival="23.00" arrivalLane="-1563_1" arrivalPos="11.82" arrivalSpeed="6.04" duration="8.00" routeLength="28.04" waitingTime="0.00" waitingCount="0" stopTime="0.00" timeLoss="4.93" rerouteNo="0" devices="tripinfo_randomCar_1716582336254090909" vType="vehicle.dodge.charger_police_2020" speedFactor="0.98" vaporized="traci"/>
    <tripinfo id="randomCar_1716582336258859225" depart="15.00" departLane="-1576_1" departPos="5.34" departSpeed="0.00" departDelay="0.00" arrival="23.00" arrivalLane="-1576_1" arrivalPos="51.68" arrivalSpeed="9.51" duration="8.00" routeLength="46.34" waitingTime="0.00" waitingCount="0" stopTime="0.00" timeLoss="3.77" rerouteNo="0" devices="tripinfo_randomCar_1716582336258859225" vType="vehicle.dodge.charger_police_2020" speedFactor="1.03" vaporized="traci"/>
    <tripinfo id="randomCar_1716582336263265709" depart="15.00" departLane="-1622_1" departPos="5.34" departSpeed="0.00" departDelay="0.00" arrival="23.00" arrivalLane="-1622_1" arrivalPos="62.98" arrivalSpeed="12.19" duration="8.00" routeLength="57.64" waitingTime="0.00" waitingCount="0" stopTime="0.00" timeLoss="2.68" rerouteNo="0" devices="tripinfo_randomCar_1716582336263265709" vType="vehicle.dodge.charger_police_2020" speedFactor="0.96" vaporized="traci"/>
    <tripinfo id="randomCar_1716582336266333277" depart="15.00" departLane="-1490_1" departPos="2.06" departSpeed="0.00" departDelay="0.00" arrival="23.00" arrivalLane="-1490_1" arrivalPos="2.06" arrivalSpeed="0.00" duration="8.00" routeLength="0.00" waitingTime="7.00" waitingCount="1" stopTime="0.00" timeLoss="7.00" rerouteNo="0" devices="tripinfo_randomCar_1716582336266333277" vType="vehicle.dodge.charger_police_2020" speedFactor="0.91" vaporized="traci"/>
    <tripinfo id="randomCar_1716582336267889013" depart="17.00" departLane="-1444_1" departPos="5.34" departSpeed="0.00" departDelay="2.00" arrival="23.00" arrivalLane="-1444_1" arrivalPos="33.38" arrivalSpeed="9.50" duration="6.00" routeLength="28.05" waitingTime="0.00" waitingCount="0" stopTime="0.00" timeLoss="2.74" rerouteNo="0" devices="tripinfo_randomCar_1716582336267889013" vType="vehicle.dodge.charger_police_2020" speedFactor="0.89" vaporized="traci"/>
    <tripinfo id="randomCar_1716582336269711072" depart="15.00" departLane="-1511_1" departPos="0.20" departSpeed="0.00" departDelay="0.00" arrival="23.00" arrivalLane=":92_2_1" arrivalPos="6.44" arrivalSpeed="4.28" duration="8.00" routeLength="34.21" waitingTime="0.00" waitingCount="0" stopTime="0.00" timeLoss="2.19" rerouteNo="0" devices="tripinfo_randomCar_1716582336269711072" vType="vehicle.dodge.charger_police_2020" speedFactor="0.87" vaporized="traci"/>
    <tripinfo id="randomCar_1716582336271666542" depart="15.00" departLane="-1524_1" departPos="5.34" departSpeed="0.00" departDelay="0.00" arrival="23.00" arrivalLane="-1521_1" arrivalPos="0.10" arrivalSpeed="0.01" duration="8.00" routeLength="11.42" waitingTime="1.00" waitingCount="1" stopTime="0.00" timeLoss="4.43" rerouteNo="0" devices="tripinfo_randomCar_1716582336271666542" vType="vehicle.dodge.charger_police_2020" speedFactor="0.76" vaporized="traci"/>
    <tripinfo id="randomCar_1716582336274154259" depart="18.00" departLane="-1445_1" departPos="5.34" departSpeed="0.00" departDelay="3.00" arrival="23.00" arrivalLane="-1445_1" arrivalPos="19.69" arrivalSpeed="5.94" duration="5.00" routeLength="14.35" waitingTime="0.00" waitingCount="0" stopTime="0.00" timeLoss="3.08" rerouteNo="0" devices="tripinfo_randomCar_1716582336274154259" vType="vehicle.dodge.charger_police_2020" speedFactor="1.12" vaporized="traci"/>
    <tripinfo id="randomCar_1716582336276170935" depart="17.00" departLane="-1498_0" departPos="0.20" departSpeed="0.00" departDelay="1.00" arrival="23.00" arrivalLane=":87_1_0" arrivalPos="8.94" arrivalSpeed="6.08" duration="6.00" routeLength="18.27" waitingTime="0.00" waitingCount="0" stopTime="0.00" timeLoss="3.24" rerouteNo="0" devices="tripinfo_randomCar_1716582336276170935" vType="vehicle.dodge.charger_police_2020" speedFactor="0.99" vaporized="traci"/>
    <tripinfo id="randomCar_1716582336850221716" depart="16.00" departLane="-1651_1" departPos="5.34" departSpeed="0.00" departDelay="0.00" arrival="23.00" arrivalLane="-1651_1" arrivalPos="41.11" arrivalSpeed="10.46" duration="7.00" routeLength="35.77" waitingTime="0.00" waitingCount="0" stopTime="0.00" timeLoss="3.47" rerouteNo="0" devices="tripinfo_randomCar_1716582336850221716" vType="vehicle.dodge.charger_police_2020" speedFactor="1.02" vaporized="traci"/>
    <tripinfo id="randomCar_1716582336853692519" depart="16.00" departLane="-1424_1" departPos="5.34" departSpeed="0.00" departDelay="0.00" arrival="23.00" arrivalLane="-1424_1" arrivalPos="47.77" arrivalSpeed="12.93" duration="7.00" routeLength="42.43" waitingTime="0.00" waitingCount="0" stopTime="0.00" timeLoss="2.86" rerouteNo="0" devices="tripinfo_randomCar_1716582336853692519" vType="vehicle.dodge.charger_police_2020" speedFactor="0.97" vaporized="traci"/>
    <tripinfo id="randomCar_1716582336855362664" depart="16.00" departLane="-1513_1" departPos="5.34" departSpeed="0.00" departDelay="0.00" arrival="23.00" arrivalLane=":99_3_0" arrivalPos="1.11" arrivalSpeed="10.36" duration="7.00" routeLength="37.65" waitingTime="0.00" waitingCount="0" stopTime="0.00" timeLoss="3.45" rerouteNo="0" devices="tripinfo_randomCar_1716582336855362664" vType="vehicle.dodge.charger_police_2020" speedFactor="1.18" vaporized="traci"/>
    <tripinfo id="randomCar_1716582336858662252" depart="16.00" departLane="-1644_1" departPos="5.34" departSpeed="0.00" departDelay="0.00" arrival="23.00" arrivalLane="-1644_1" arrivalPos="48.22" arrivalSpeed="12.33" duration="7.00" routeLength="42.89" waitingTime="0.00" waitingCount="0" stopTime="0.00" timeLoss="3.20" rerouteNo="0" devices="tripinfo_randomCar_1716582336858662252" vType="vehicle.dodge.charger_police_2020" speedFactor="1.10" vaporized="traci"/>
    <tripinfo id="randomCar_1716582336861658013" depart="16.00" departLane="-1575_1" departPos="5.34" departSpeed="0.00" departDelay="0.00" arrival="23.00" arrivalLane="-1575_1" arrivalPos="42.25" arrivalSpeed="10.97" duration="7.00" routeLength="36.91" waitingTime="0.00" waitingCount="0" stopTime="0.00" timeLoss="3.05" rerouteNo="0" devices="tripinfo_randomCar_1716582336861658013" vType="vehicle.dodge.charger_police_2020" speedFactor="0.90" vaporized="traci"/>
    <tripinfo id="randomCar_1716582336864517963" depart="16.00" departLane="-1567_1" departPos="5.34" departSpeed="0.00" departDelay="0.00" arrival="23.00" arrivalLane="-1567_1" arrivalPos="48.39" arrivalSpeed="11.81" duration="7.00" routeLength="43.05" waitingTime="0.00" waitingCount="0" stopTime="0.00" timeLoss="2.99" rerouteNo="0" devices="tripinfo_randomCar_1716582336864517963" vType="vehicle.dodge.charger_police_2020" speedFactor="1.03" vaporized="traci"/>
    <tripinfo id="randomCar_1716582336867612533" depart="16.00" departLane="-1662_1" departPos="5.34" departSpeed="0.00" departDelay="0.00" arrival="23.00" arrivalLane=":67_0_1" arrivalPos="1.89" arrivalSpeed="6.31" duration="7.00" routeLength="37.90" waitingTime="0.00" waitingCount="0" stopTime="0.00" timeLoss="2.66" rerouteNo="0" devices="tripinfo_randomCar_1716582336867612533" vType="vehicle.dodge.charger_police_2020" speedFactor="0.96" vaporized="traci"/>
    <tripinfo id="randomCar_1716582336869336483" depart="16.00" departLane="-1525_2" departPos="5.34" departSpeed="0.00" departDelay="0.00" arrival="23.00" arrivalLane="-1525_2" arrivalPos="45.72" arrivalSpeed="10.02" duration="7.00" routeLength="40.39" waitingTime="0.00" waitingCount="0" stopTime="0.00" timeLoss="3.34" rerouteNo="0" devices="tripinfo_randomCar_1716582336869336483" vType="vehicle.dodge.charger_police_2020" speedFactor="1.09" vaporized="traci"/>
    <tripinfo id="randomCar_1716582336870529387" depart="16.00" departLane="-1547_1" departPos="5.34" departSpeed="0.00" departDelay="0.00" arrival="23.00" arrivalLane="-1547_1" arrivalPos="45.80" arrivalSpeed="11.45" duration="7.00" routeLength="40.47" waitingTime="0.00" waitingCount="0" stopTime="0.00" timeLoss="3.19" rerouteNo="0" devices="tripinfo_randomCar_1716582336870529387" vType="vehicle.dodge.charger_police_2020" speedFactor="1.04" vaporized="traci"/>
    <tripinfo id="randomCar_1716582336871082236" depart="16.00" departLane="-1550_1" departPos="5.34" departSpeed="0.00" departDelay="0.00" arrival="23.00" arrivalLane="-1663_2" arrivalPos="9.46" arrivalSpeed="9.34" duration="7.00" routeLength="36.85" waitingTime="0.00" waitingCount="0" stopTime="0.00" timeLoss="3.04" rerouteNo="0" devices="tripinfo_randomCar_1716582336871082236" vType="vehicle.dodge.charger_police_2020" speedFactor="1.04" vaporized="traci"/>
    <tripinfo id="randomCar_1716582336871948211" depart="16.00" departLane="-1627_2" departPos="5.34" departSpeed="0.00" departDelay="0.00" arrival="23.00" arrivalLane=":95_9_0" arrivalPos="7.08" arrivalSpeed="7.58" duration="7.00" routeLength="35.43" waitingTime="0.00" waitingCount="0" stopTime="0.00" timeLoss="3.21" rerouteNo="0" devices="tripinfo_randomCar_1716582336871948211" vType="vehicle.dodge.charger_police_2020" speedFactor="1.09" vaporized="traci"/>
    <tripinfo id="randomCar_1716582336873248225" depart="16.00" departLane="-1654_1" departPos="0.20" departSpeed="0.00" departDelay="0.00" arrival="23.00" arrivalLane=":129_3_0" arrivalPos="4.07" arrivalSpeed="10.23" duration="7.00" routeLength="38.39" waitingTime="0.00" waitingCount="0" stopTime="0.00" timeLoss="3.21" rerouteNo="0" devices="tripinfo_randomCar_1716582336873248225" vType="vehicle.dodge.charger_police_2020" speedFactor="1.00" vaporized="traci"/>
    <tripinfo id="randomCar_1716582336874105099" depart="16.00" departLane="-1471_1" departPos="5.34" departSpeed="0.00" departDelay="0.00" arrival="23.00" arrivalLane="-1471_1" arrivalPos="46.08" arrivalSpeed="11.52" duration="7.00" routeLength="40.75" waitingTime="0.00" waitingCount="0" stopTime="0.00" timeLoss="2.74" rerouteNo="0" devices="tripinfo_randomCar_1716582336874105099" vType="vehicle.dodge.charger_police_2020" speedFactor="0.90" vaporized="traci"/>
    <tripinfo id="randomCar_1716582336874983376" depart="16.00" departLane="-1571_1" departPos="5.34" departSpeed="0.00" departDelay="0.00" arrival="23.00" arrivalLane="-1571_1" arrivalPos="43.86" arrivalSpeed="8.84" duration="7.00" routeLength="38.52" waitingTime="0.00" waitingCount="0" stopTime="0.00" timeLoss="2.05" rerouteNo="0" devices="tripinfo_randomCar_1716582336874983376" vType="vehicle.dodge.charger_police_2020" speedFactor="0.88" vaporized="traci"/>
    <tripinfo id="randomCar_1716582336876022067" depart="16.00" departLane="-1625_1" departPos="5.34" departSpeed="0.00" departDelay="0.00" arrival="24.00" arrivalLane=":88_0_0" arrivalPos="1.49" arrivalSpeed="3.43" duration="8.00" routeLength="39.63" waitingTime="0.00" waitingCount="0" stopTime="0.00" timeLoss="3.87" rerouteNo="0" devices="tripinfo_randomCar_1716582336876022067" vType="vehicle.dodge.charger_police_2020" speedFactor="0.85" vaporized="traci"/>
    <tripinfo id="randomCar_1716582336877317180" depart="16.00" departLane="-1646_1" departPos="5.34" departSpeed="0.00" departDelay="0.00" arrival="24.00" arrivalLane="-1646_1" arrivalPos="65.67" arrivalSpeed="15.16" duration="8.00" routeLength="60.34" waitingTime="0.00" waitingCount="0" stopTime="0.00" timeLoss="3.82" rerouteNo="0" devices="tripinfo_randomCar_1716582336877317180" vType="vehicle.dodge.charger_police_2020" speedFactor="0.85" vaporized="traci"/>
    <tripinfo id="randomCar_1716582336878145352" depart="18.00" departLane="-1408_1" departPos="0.20" departSpeed="0.00" departDelay="2.00" arrival="24.00" arrivalLane="-1589_1" arrivalPos="9.08" arrivalSpeed="8.15" duration="6.00" routeLength="23.05" waitingTime="0.00" waitingCount="0" stopTime="0.00" timeLoss="3.21" rerouteNo="0" devices="tripinfo_randomCar_1716582336878145352" vType="vehicle.dodge.charger_police_2020" speedFactor="1.17" vaporized="traci"/>
    <tripinfo id="randomCar_1716582336879489569" depart="16.00" departLane="-1624_1" departPos="5.34" departSpeed="0.00" departDelay="0.00" arrival="24.00" arrivalLane=":35_8_1" arrivalPos="17.34" arrivalSpeed="13.80" duration="8.00" routeLength="55.33" waitingTime="0.00" waitingCount="0" stopTime="0.00" timeLoss="3.36" rerouteNo="0" devices="tripinfo_randomCar_1716582336879489569" vType="vehicle.dodge.charger_police_2020" speedFactor="1.10" vaporized="traci"/>
    <tripinfo id="randomCar_1716582336880407449" depart="16.00" departLane="-1493_1" departPos="0.20" departSpeed="0.00" departDelay="0.00" arrival="24.00" arrivalLane="-1495_1" arrivalPos="0.36" arrivalSpeed="5.93" duration="8.00" routeLength="12.25" waitingTime="4.00" waitingCount="1" stopTime="0.00" timeLoss="6.25" rerouteNo="0" devices="tripinfo_randomCar_1716582336880407449" vType="vehicle.dodge.charger_police_2020" speedFactor="1.00" vaporized="traci"/>
    <tripinfo id="randomCar_1716582336882071394" depart="19.00" departLane="-1567_1" departPos="5.34" departSpeed="0.00" departDelay="3.00" arrival="24.00" arrivalLane="-1567_1" arrivalPos="24.95" arrivalSpeed="7.53" duration="5.00" routeLength="19.61" waitingTime="0.00" waitingCount="0" stopTime="0.00" timeLoss="2.58" rerouteNo="0" devices="tripinfo_randomCar_1716582336882071394" vType="vehicle.dodge.charger_police_2020" speedFactor="1.00" vaporized="traci"/>
    <tripinfo id="randomCar_1716582336882962172" depart="19.00" departLane="-1550_1" departPos="5.34" departSpeed="0.00" departDelay="3.00" arrival="24.00" arrivalLane="-1550_1" arrivalPos="18.83" arrivalSpeed="4.06" duration="5.00" routeLength="13.49" waitingTime="0.00" waitingCount="0" stopTime="0.00" timeLoss="2.92" rerouteNo="0" devices="tripinfo_randomCar_1716582336882962172" vType="vehicle.dodge.charger_police_2020" speedFactor="0.90" vaporized="traci"/>
    <tripinfo id="randomCar_1716582336883745840" depart="16.00" departLane="-1638_1" departPos="5.34" departSpeed="0.00" departDelay="0.00" arrival="24.00" arrivalLane="-1638_1" arrivalPos="55.52" arrivalSpeed="12.67" duration="8.00" routeLength="50.19" waitingTime="0.00" waitingCount="0" stopTime="0.00" timeLoss="3.84" rerouteNo="0" devices="tripinfo_randomCar_1716582336883745840" vType="vehicle.dodge.charger_police_2020" speedFactor="1.14" vaporized="traci"/>
    <tripinfo id="randomCar_1716582336884931444" depart="18.00" departLane="-1527_1" departPos="5.34" departSpeed="0.00" departDelay="2.00" arrival="24.00" arrivalLane="-1527_1" arrivalPos="32.85" arrivalSpeed="8.97" duration="6.00" routeLength="27.51" waitingTime="0.00" waitingCount="0" stopTime="0.00" timeLoss="3.07" rerouteNo="0" devices="tripinfo_randomCar_1716582336884931444" vType="vehicle.dodge.charger_police_2020" speedFactor="1.02" vaporized="traci"/>
    <tripinfo id="randomCar_1716582336886665295" depart="16.00" departLane="-1637_2" departPos="5.34" departSpeed="0.00" departDelay="0.00" arrival="24.00" arrivalLane="-1637_2" arrivalPos="51.54" arrivalSpeed="6.82" duration="8.00" routeLength="46.20" waitingTime="0.00" waitingCount="0" stopTime="0.00" timeLoss="3.57" rerouteNo="0" devices="tripinfo_randomCar_1716582336886665295" vType="vehicle.dodge.charger_police_2020" speedFactor="0.97" vaporized="traci"/>
    <tripinfo id="randomCar_1716582336887666082" depart="16.00" departLane="-1619_1" departPos="5.34" departSpeed="0.00" departDelay="0.00" arrival="24.00" arrivalLane="-1619_1" arrivalPos="49.50" arrivalSpeed="10.42" duration="8.00" routeLength="44.16" waitingTime="0.00" waitingCount="0" stopTime="0.00" timeLoss="5.16" rerouteNo="0" devices="tripinfo_randomCar_1716582336887666082" vType="vehicle.dodge.charger_police_2020" speedFactor="1.08" vaporized="traci"/>
    <tripinfo id="randomCar_1716582336888362043" depart="20.00" departLane="-1561_1" departPos="1.09" departSpeed="0.00" departDelay="3.00" arrival="24.00" arrivalLane=":78_0_1" arrivalPos="8.36" arrivalSpeed="4.72" duration="4.00" routeLength="8.36" waitingTime="0.00" waitingCount="0" stopTime="0.00" timeLoss="1.81" rerouteNo="0" devices="tripinfo_randomCar_1716582336888362043" vType="vehicle.dodge.charger_police_2020" speedFactor="1.03" vaporized="traci"/>
</tripinfos>
