<?xml version="1.0" encoding="UTF-8"?>

<!-- generated on 2024-04-29 16:48:32 by Eclipse SUMO GUI Version 1.12.0
<configuration xmlns:xsi="http://www.w3.org/2001/XMLSchema-instance" xsi:noNamespaceSchemaLocation="http://sumo.dlr.de/xsd/sumoConfiguration.xsd">

    <input>
        <net-file value="../Adapters/co_simulation/sumo_configuration/simple-map/simple-map.net.xml"/>
        <route-files value="../Adapters/co_simulation/sumo_configuration/simple-map/carlavtypes.rou.xml,../Adapters/co_simulation/sumo_configuration/simple-map/simple-map.rou.xml"/>
    </input>

    <output>
        <tripinfo-output value="tripinfo.xml"/>
    </output>

    <traci_server>
        <remote-port value="34867"/>
        <num-clients value="1"/>
    </traci_server>

    <gui_only>
        <gui-settings-file value="../Adapters/co_simulation/sumo_configuration/simple-map/simple-map.view.xml"/>
        <quit-on-end value="true"/>
    </gui_only>

</configuration>
-->

<tripinfos xmlns:xsi="http://www.w3.org/2001/XMLSchema-instance" xsi:noNamespaceSchemaLocation="http://sumo.dlr.de/xsd/tripinfo_file.xsd">
    <tripinfo id="1" depart="5.00" departLane="-1473_1" departPos="3.81" departSpeed="0.00" departDelay="0.00" arrival="16.00" arrivalLane="-1485_1" arrivalPos="45.95" arrivalSpeed="11.95" duration="11.00" routeLength="95.41" waitingTime="0.00" waitingCount="0" stopTime="0.00" timeLoss="3.19" rerouteNo="0" devices="tripinfo_1" vType="vehicle.audi.a2" speedFactor="0.94" vaporized=""/>
    <tripinfo id="random_1714405734826636311" depart="33.00" departLane="-1405_1" departPos="1.94" departSpeed="0.00" departDelay="0.00" arrival="52.00" arrivalLane="-1560_1" arrivalPos="31.26" arrivalSpeed="5.27" duration="19.00" routeLength="65.31" waitingTime="0.00" waitingCount="0" stopTime="0.00" timeLoss="6.73" rerouteNo="0" devices="tripinfo_random_1714405734826636311" vType="vehicle.gazelle.omafiets" speedFactor="1.16" vaporized=""/>
    <tripinfo id="random_1714405737010839630" depart="42.00" departLane="-1449_0" departPos="0.20" departSpeed="0.00" departDelay="0.00" arrival="61.00" arrivalLane="-1507_1" arrivalPos="68.69" arrivalSpeed="14.34" duration="19.00" routeLength="202.43" waitingTime="0.00" waitingCount="0" stopTime="0.00" timeLoss="5.12" rerouteNo="0" devices="tripinfo_random_1714405737010839630" vType="vehicle.vespa.zx125" speedFactor="1.18" vaporized=""/>
    <tripinfo id="random_1714405737522357707" depart="46.00" departLane="-1538_1" departPos="0.10" departSpeed="0.00" departDelay="0.00" arrival="74.00" arrivalLane="-1394_1" arrivalPos="0.20" arrivalSpeed="10.84" duration="28.00" routeLength="170.20" waitingTime="0.00" waitingCount="0" stopTime="0.00" timeLoss="17.08" rerouteNo="0" devices="tripinfo_random_1714405737522357707" vType="vehicle.vespa.zx125" speedFactor="1.04" vaporized=""/>
    <tripinfo id="random_1714405740928062255" depart="67.00" departLane="-1450_1" departPos="2.06" departSpeed="0.00" departDelay="2.00" arrival="77.00" arrivalLane="-1462_0" arrivalPos="0.20" arrivalSpeed="6.52" duration="10.00" routeLength="25.40" waitingTime="4.00" waitingCount="1" stopTime="0.00" timeLoss="6.67" rerouteNo="0" devices="tripinfo_random_1714405740928062255" vType="vehicle.audi.tt" speedFactor="0.83" vaporized=""/>
    <tripinfo id="0" depart="3.00" departLane="-1545_1" departPos="3.81" departSpeed="0.00" departDelay="0.00" arrival="82.00" arrivalLane="-1422_1" arrivalPos="7.48" arrivalSpeed="10.45" duration="79.00" routeLength="1038.60" waitingTime="0.00" waitingCount="0" stopTime="0.00" timeLoss="7.54" rerouteNo="0" devices="tripinfo_0" vType="vehicle.audi.a2" speedFactor="1.06" vaporized=""/>
    <tripinfo id="random_1714405738707480558" depart="52.00" departLane="-1480_1" departPos="5.13" departSpeed="0.00" departDelay="0.00" arrival="88.00" arrivalLane="-1392_1" arrivalPos="132.51" arrivalSpeed="10.95" duration="36.00" routeLength="330.44" waitingTime="0.00" waitingCount="0" stopTime="0.00" timeLoss="7.63" rerouteNo="0" devices="tripinfo_random_1714405738707480558" vType="vehicle.mercedes.coupe" speedFactor="1.02" vaporized=""/>
    <tripinfo id="random_1714405742807607267" depart="81.00" departLane="-1453_1" departPos="0.20" departSpeed="0.00" departDelay="5.00" arrival="101.00" arrivalLane="-1375_0" arrivalPos="87.23" arrivalSpeed="20.04" duration="20.00" routeLength="128.63" waitingTime="6.00" waitingCount="1" stopTime="0.00" timeLoss="12.70" rerouteNo="0" devices="tripinfo_random_1714405742807607267" vType="vehicle.nissan.micra" speedFactor="0.92" vaporized=""/>
    <tripinfo id="random_1714405739395793923" depart="56.00" departLane="-1456_1" departPos="1.31" departSpeed="0.00" departDelay="0.00" arrival="104.00" arrivalLane="-1510_1" arrivalPos="19.96" arrivalSpeed="5.33" duration="48.00" routeLength="363.39" waitingTime="3.00" waitingCount="1" stopTime="0.00" timeLoss="18.41" rerouteNo="0" devices="tripinfo_random_1714405739395793923" vType="vehicle.micro.microlino" speedFactor="1.02" vaporized=""/>
    <tripinfo id="random_1714405739741681205" depart="58.00" departLane="-1614_1" departPos="10.37" departSpeed="0.00" departDelay="0.00" arrival="111.00" arrivalLane="-1485_1" arrivalPos="45.95" arrivalSpeed="13.90" duration="53.00" routeLength="649.58" waitingTime="0.00" waitingCount="0" stopTime="0.00" timeLoss="7.38" rerouteNo="0" devices="tripinfo_random_1714405739741681205" vType="vehicle.mitsubishi.fusorosa" speedFactor="1.03" vaporized=""/>
    <tripinfo id="random_1714405745706486366" depart="93.00" departLane="-1557_1" departPos="3.81" departSpeed="0.00" departDelay="0.00" arrival="111.00" arrivalLane="-1524_1" arrivalPos="56.13" arrivalSpeed="13.34" duration="18.00" routeLength="191.40" waitingTime="0.00" waitingCount="0" stopTime="0.00" timeLoss="3.73" rerouteNo="0" devices="tripinfo_random_1714405745706486366" vType="vehicle.audi.a2" speedFactor="1.00" vaporized=""/>
    <tripinfo id="random_1714405739400925320" depart="56.00" departLane="-1537_1" departPos="2.29" departSpeed="0.00" departDelay="0.00" arrival="112.00" arrivalLane="-1541_1" arrivalPos="110.35" arrivalSpeed="11.14" duration="56.00" routeLength="457.80" waitingTime="0.00" waitingCount="0" stopTime="0.00" timeLoss="22.30" rerouteNo="0" devices="tripinfo_random_1714405739400925320" vType="vehicle.yamaha.yzf" speedFactor="1.02" vaporized=""/>
    <tripinfo id="random_1714405738897019538" depart="53.00" departLane="-1510_1" departPos="8.57" departSpeed="0.00" departDelay="0.00" arrival="115.00" arrivalLane="-1582_1" arrivalPos="43.33" arrivalSpeed="12.80" duration="62.00" routeLength="574.25" waitingTime="0.00" waitingCount="0" stopTime="0.00" timeLoss="13.99" rerouteNo="0" devices="tripinfo_random_1714405738897019538" vType="vehicle.carlamotors.firetruck" speedFactor="0.94" vaporized=""/>
    <tripinfo id="random_1714405737346129219" depart="44.00" departLane="-1375_0" departPos="4.82" departSpeed="0.00" departDelay="0.00" arrival="116.00" arrivalLane="-1523_1" arrivalPos="14.38" arrivalSpeed="13.59" duration="72.00" routeLength="494.71" waitingTime="13.00" waitingCount="1" stopTime="0.00" timeLoss="40.59" rerouteNo="0" devices="tripinfo_random_1714405737346129219" vType="vehicle.ford.mustang" speedFactor="1.03" vaporized=""/>
    <tripinfo id="random_1714405737178256725" depart="43.00" departLane="-1374_1" departPos="6.02" departSpeed="0.00" departDelay="0.00" arrival="117.00" arrivalLane="-1473_2" arrivalPos="41.87" arrivalSpeed="14.59" duration="74.00" routeLength="423.45" waitingTime="15.00" waitingCount="2" stopTime="0.00" timeLoss="41.46" rerouteNo="0" devices="tripinfo_random_1714405737178256725" vType="vehicle.mercedes.sprinter" speedFactor="1.10" vaporized=""/>
    <tripinfo id="random_1714405740933493651" depart="65.00" departLane="-1482_1" departPos="3.97" departSpeed="0.00" departDelay="0.00" arrival="118.00" arrivalLane="-1593_1" arrivalPos="70.06" arrivalSpeed="12.54" duration="53.00" routeLength="539.95" waitingTime="0.00" waitingCount="0" stopTime="0.00" timeLoss="9.47" rerouteNo="0" devices="tripinfo_random_1714405740933493651" vType="vehicle.jeep.wrangler_rubicon" speedFactor="0.92" vaporized=""/>
    <tripinfo id="random_1714405748945635091" depart="112.00" departLane="-1495_1" departPos="3.91" departSpeed="0.00" departDelay="0.00" arrival="122.00" arrivalLane="-1605_1" arrivalPos="0.20" arrivalSpeed="6.29" duration="10.00" routeLength="61.51" waitingTime="0.00" waitingCount="0" stopTime="0.00" timeLoss="4.68" rerouteNo="0" devices="tripinfo_random_1714405748945635091" vType="vehicle.mini.cooper_s" speedFactor="0.90" vaporized=""/>
    <tripinfo id="random_1714405732978615865" depart="29.00" departLane="-1459_0" departPos="0.20" departSpeed="0.00" departDelay="0.00" arrival="134.00" arrivalLane="-1397_1" arrivalPos="34.36" arrivalSpeed="12.42" duration="105.00" routeLength="1280.96" waitingTime="0.00" waitingCount="0" stopTime="0.00" timeLoss="13.11" rerouteNo="0" devices="tripinfo_random_1714405732978615865" vType="vehicle.volkswagen.t2_2021" speedFactor="1.03" vaporized=""/>
    <tripinfo id="random_1714405739054305939" depart="54.00" departLane="-1598_0" departPos="4.96" departSpeed="0.00" departDelay="0.00" arrival="137.00" arrivalLane="-1533_1" arrivalPos="77.57" arrivalSpeed="9.42" duration="83.00" routeLength="611.86" waitingTime="9.00" waitingCount="2" stopTime="0.00" timeLoss="30.91" rerouteNo="0" devices="tripinfo_random_1714405739054305939" vType="vehicle.audi.etron" speedFactor="0.91" vaporized=""/>
    <tripinfo id="random_1714405743322571741" depart="81.00" departLane="-1606_1" departPos="0.25" departSpeed="0.00" departDelay="2.00" arrival="143.00" arrivalLane="-1497_1" arrivalPos="45.63" arrivalSpeed="4.38" duration="62.00" routeLength="172.80" waitingTime="32.00" waitingCount="1" stopTime="0.00" timeLoss="47.47" rerouteNo="0" devices="tripinfo_random_1714405743322571741" vType="vehicle.dodge.charger_police" speedFactor="1.00" vaporized=""/>
    <tripinfo id="random_1714405729252180175" depart="22.00" departLane="-1526_1" departPos="2.29" departSpeed="0.00" departDelay="0.00" arrival="144.00" arrivalLane="-1544_1" arrivalPos="5.82" arrivalSpeed="13.46" duration="122.00" routeLength="777.18" waitingTime="17.00" waitingCount="4" stopTime="0.00" timeLoss="61.35" rerouteNo="0" devices="tripinfo_random_1714405729252180175" vType="vehicle.yamaha.yzf" speedFactor="1.01" vaporized=""/>
    <tripinfo id="random_1714405733915330038" depart="30.00" departLane="-1385_1" departPos="2.45" departSpeed="0.00" departDelay="0.00" arrival="144.00" arrivalLane="-1562_1" arrivalPos="151.23" arrivalSpeed="6.71" duration="114.00" routeLength="878.48" waitingTime="31.00" waitingCount="1" stopTime="0.00" timeLoss="54.63" rerouteNo="0" devices="tripinfo_random_1714405733915330038" vType="vehicle.harley-davidson.low_rider" speedFactor="1.12" vaporized=""/>
    <tripinfo id="random_1714405744169035006" depart="84.00" departLane="-1502_1" departPos="1.20" departSpeed="0.00" departDelay="0.00" arrival="144.00" arrivalLane="-1556_1" arrivalPos="134.55" arrivalSpeed="4.97" duration="60.00" routeLength="295.28" waitingTime="0.00" waitingCount="0" stopTime="0.00" timeLoss="6.35" rerouteNo="0" devices="tripinfo_random_1714405744169035006" vType="vehicle.gazelle.omafiets" speedFactor="1.03" vaporized=""/>
    <tripinfo id="random_1714405744352478490" depart="86.00" departLane="-1466_1" departPos="5.30" departSpeed="0.00" departDelay="0.00" arrival="144.00" arrivalLane="-1489_2" arrivalPos="78.96" arrivalSpeed="14.37" duration="58.00" routeLength="591.63" waitingTime="0.00" waitingCount="0" stopTime="0.00" timeLoss="18.30" rerouteNo="0" devices="tripinfo_random_1714405744352478490" vType="vehicle.carlamotors.carlacola" speedFactor="1.11" vaporized=""/>
    <tripinfo id="random_1714405740938742948" depart="65.00" departLane="-1575_1" departPos="4.71" departSpeed="0.00" departDelay="0.00" arrival="145.00" arrivalLane="-1587_1" arrivalPos="26.02" arrivalSpeed="10.62" duration="80.00" routeLength="803.64" waitingTime="0.00" waitingCount="0" stopTime="0.00" timeLoss="20.93" rerouteNo="0" devices="tripinfo_random_1714405740938742948" vType="vehicle.bmw.grandtourer" speedFactor="1.09" vaporized=""/>
    <tripinfo id="random_1714405742462986885" depart="74.00" departLane="-1534_1" departPos="2.29" departSpeed="0.00" departDelay="0.00" arrival="148.00" arrivalLane="-1617_1" arrivalPos="588.55" arrivalSpeed="12.68" duration="74.00" routeLength="853.84" waitingTime="0.00" waitingCount="0" stopTime="0.00" timeLoss="9.67" rerouteNo="0" devices="tripinfo_random_1714405742462986885" vType="vehicle.yamaha.yzf" speedFactor="0.96" vaporized=""/>
    <tripinfo id="random_1714405745886711362" depart="95.00" departLane="-1456_1" departPos="1.31" departSpeed="0.00" departDelay="0.00" arrival="151.00" arrivalLane="-1527_1" arrivalPos="70.17" arrivalSpeed="14.13" duration="56.00" routeLength="569.21" waitingTime="0.00" waitingCount="0" stopTime="0.00" timeLoss="12.64" rerouteNo="0" devices="tripinfo_random_1714405745886711362" vType="vehicle.seat.leon" speedFactor="1.07" vaporized=""/>
    <tripinfo id="random_1714405736186985971" depart="38.00" departLane="-1490_1" departPos="5.67" departSpeed="0.00" departDelay="0.00" arrival="154.00" arrivalLane="-1473_2" arrivalPos="41.87" arrivalSpeed="12.11" duration="116.00" routeLength="843.38" waitingTime="9.00" waitingCount="1" stopTime="0.00" timeLoss="34.62" rerouteNo="0" devices="tripinfo_random_1714405736186985971" vType="vehicle.nissan.patrol_2021" speedFactor="0.93" vaporized=""/>
    <tripinfo id="random_1714405735372216295" depart="35.00" departLane="-1581_1" departPos="4.54" departSpeed="0.00" departDelay="0.00" arrival="157.00" arrivalLane="-1473_1" arrivalPos="41.87" arrivalSpeed="13.07" duration="122.00" routeLength="513.63" waitingTime="49.00" waitingCount="1" stopTime="0.00" timeLoss="73.05" rerouteNo="0" devices="tripinfo_random_1714405735372216295" vType="vehicle.volkswagen.t2_2021" speedFactor="0.98" vaporized=""/>
    <tripinfo id="random_1714405743827648322" depart="82.00" departLane="-1377_1" departPos="6.20" departSpeed="0.00" departDelay="0.00" arrival="160.00" arrivalLane="-1568_0" arrivalPos="60.92" arrivalSpeed="12.98" duration="78.00" routeLength="840.78" waitingTime="0.00" waitingCount="0" stopTime="0.00" timeLoss="14.83" rerouteNo="0" devices="tripinfo_random_1714405743827648322" vType="DEFAULT_CONTAINERTYPE" speedFactor="1.00" vaporized=""/>
    <tripinfo id="random_1714405745199504078" depart="90.00" departLane="-1510_1" departPos="5.67" departSpeed="0.00" departDelay="0.00" arrival="160.00" arrivalLane="-1385_1" arrivalPos="70.17" arrivalSpeed="15.35" duration="70.00" routeLength="701.79" waitingTime="5.00" waitingCount="1" stopTime="0.00" timeLoss="22.82" rerouteNo="0" devices="tripinfo_random_1714405745199504078" vType="vehicle.nissan.patrol_2021" speedFactor="1.16" vaporized=""/>
    <tripinfo id="random_1714405742638244474" depart="75.00" departLane="-1564_1" departPos="3.73" departSpeed="0.00" departDelay="0.00" arrival="169.00" arrivalLane="-1351_1" arrivalPos="183.09" arrivalSpeed="6.86" duration="94.00" routeLength="534.29" waitingTime="0.00" waitingCount="0" stopTime="0.00" timeLoss="54.46" rerouteNo="0" devices="tripinfo_random_1714405742638244474" vType="vehicle.nissan.micra" speedFactor="1.01" vaporized=""/>
    <tripinfo id="random_1714405740417965077" depart="62.00" departLane="-1535_1" departPos="6.20" departSpeed="0.00" departDelay="0.00" arrival="171.00" arrivalLane="-1462_0" arrivalPos="0.20" arrivalSpeed="7.09" duration="109.00" routeLength="1223.94" waitingTime="0.00" waitingCount="0" stopTime="0.00" timeLoss="19.45" rerouteNo="0" devices="tripinfo_random_1714405740417965077" vType="DEFAULT_CONTAINERTYPE" speedFactor="1.00" vaporized=""/>
    <tripinfo id="random_1714405734832173311" depart="34.00" departLane="-1549_1" departPos="1.70" departSpeed="0.00" departDelay="0.00" arrival="173.00" arrivalLane="-1446_1" arrivalPos="44.60" arrivalSpeed="5.18" duration="139.00" routeLength="643.70" waitingTime="5.00" waitingCount="2" stopTime="0.00" timeLoss="22.89" rerouteNo="0" devices="tripinfo_random_1714405734832173311" vType="DEFAULT_BIKETYPE" speedFactor="1.02" vaporized=""/>
    <tripinfo id="random_1714405739565928116" depart="57.00" departLane="-1416_1" departPos="1.92" departSpeed="0.00" departDelay="0.00" arrival="174.00" arrivalLane="-1559_1" arrivalPos="63.52" arrivalSpeed="12.36" duration="117.00" routeLength="1059.89" waitingTime="5.00" waitingCount="1" stopTime="0.00" timeLoss="31.83" rerouteNo="0" devices="tripinfo_random_1714405739565928116" vType="vehicle.vespa.zx125" speedFactor="0.94" vaporized=""/>
    <tripinfo id="random_1714405745023440382" depart="89.00" departLane="-1461_0" departPos="0.20" departSpeed="0.00" departDelay="0.00" arrival="175.00" arrivalLane="-1422_1" arrivalPos="7.48" arrivalSpeed="9.95" duration="86.00" routeLength="1064.03" waitingTime="0.00" waitingCount="0" stopTime="0.00" timeLoss="8.60" rerouteNo="0" devices="tripinfo_random_1714405745023440382" vType="vehicle.dodge.charger_police" speedFactor="1.00" vaporized=""/>
    <tripinfo id="random_1714405742478584275" depart="75.00" departLane="-1563_1" departPos="0.20" departSpeed="0.00" departDelay="0.00" arrival="183.00" arrivalLane="-1432_1" arrivalPos="59.90" arrivalSpeed="14.94" duration="108.00" routeLength="639.92" waitingTime="0.00" waitingCount="0" stopTime="0.00" timeLoss="63.06" rerouteNo="0" devices="tripinfo_random_1714405742478584275" vType="vehicle.micro.microlino" speedFactor="1.10" vaporized=""/>
    <tripinfo id="random_1714405755418429080" depart="150.00" departLane="-1568_1" departPos="5.11" departSpeed="0.00" departDelay="0.00" arrival="186.00" arrivalLane="-1415_1" arrivalPos="3.16" arrivalSpeed="6.18" duration="36.00" routeLength="329.87" waitingTime="0.00" waitingCount="0" stopTime="0.00" timeLoss="7.85" rerouteNo="0" devices="tripinfo_random_1714405755418429080" vType="vehicle.dodge.charger_2020" speedFactor="0.87" vaporized=""/>
    <tripinfo id="random_1714405739575756209" depart="58.00" departLane="-1549_1" departPos="4.61" departSpeed="0.00" departDelay="0.00" arrival="194.00" arrivalLane="-1532_1" arrivalPos="59.16" arrivalSpeed="10.60" duration="136.00" routeLength="837.28" waitingTime="1.00" waitingCount="1" stopTime="0.00" timeLoss="67.24" rerouteNo="0" devices="tripinfo_random_1714405739575756209" vType="vehicle.toyota.prius" speedFactor="0.96" vaporized=""/>
    <tripinfo id="random_1714405740777393150" depart="67.00" departLane="-1432_1" departPos="1.61" departSpeed="0.00" departDelay="2.00" arrival="195.00" arrivalLane="-1488_1" arrivalPos="130.35" arrivalSpeed="5.49" duration="128.00" routeLength="479.24" waitingTime="29.00" waitingCount="1" stopTime="0.00" timeLoss="41.45" rerouteNo="0" devices="tripinfo_random_1714405740777393150" vType="vehicle.bh.crossbike" speedFactor="0.89" vaporized=""/>
    <tripinfo id="random_1714405762910112625" depart="194.00" departLane="-1462_0" departPos="0.20" departSpeed="0.00" departDelay="0.00" arrival="203.00" arrivalLane="-1450_1" arrivalPos="2.06" arrivalSpeed="3.59" duration="9.00" routeLength="34.92" waitingTime="0.00" waitingCount="0" stopTime="0.00" timeLoss="5.01" rerouteNo="0" devices="tripinfo_random_1714405762910112625" vType="vehicle.mercedes.coupe" speedFactor="0.86" vaporized=""/>
    <tripinfo id="random_1714405734236248129" depart="31.00" departLane="-1434_1" departPos="2.45" departSpeed="0.00" departDelay="0.00" arrival="210.00" arrivalLane="-1544_2" arrivalPos="5.82" arrivalSpeed="10.32" duration="179.00" routeLength="1156.52" waitingTime="28.00" waitingCount="1" stopTime="0.00" timeLoss="79.98" rerouteNo="0" devices="tripinfo_random_1714405734236248129" vType="vehicle.harley-davidson.low_rider" speedFactor="0.93" vaporized=""/>
    <tripinfo id="random_1714405749623284175" depart="116.00" departLane="-1473_1" departPos="5.34" departSpeed="0.00" departDelay="0.00" arrival="216.00" arrivalLane="-1531_1" arrivalPos="58.33" arrivalSpeed="9.37" duration="100.00" routeLength="425.27" waitingTime="41.00" waitingCount="1" stopTime="0.00" timeLoss="55.70" rerouteNo="0" devices="tripinfo_random_1714405749623284175" vType="vehicle.dodge.charger_police_2020" speedFactor="0.87" vaporized=""/>
    <tripinfo id="random_1714405739061464734" depart="55.00" departLane="-1528_1" departPos="4.65" departSpeed="0.00" departDelay="0.00" arrival="221.00" arrivalLane="-1591_1" arrivalPos="11.38" arrivalSpeed="12.33" duration="166.00" routeLength="1803.77" waitingTime="0.00" waitingCount="0" stopTime="0.00" timeLoss="20.70" rerouteNo="0" devices="tripinfo_random_1714405739061464734" vType="vehicle.mini.cooper_s_2021" speedFactor="0.91" vaporized=""/>
    <tripinfo id="random_1714405764100760376" depart="204.00" departLane="-1461_0" departPos="0.20" departSpeed="0.00" departDelay="3.00" arrival="223.00" arrivalLane="-1375_0" arrivalPos="87.23" arrivalSpeed="15.56" duration="19.00" routeLength="141.71" waitingTime="0.00" waitingCount="0" stopTime="0.00" timeLoss="10.35" rerouteNo="0" devices="tripinfo_random_1714405764100760376" vType="vehicle.carlamotors.carlacola" speedFactor="0.97" vaporized=""/>
    <tripinfo id="random_1714405740078189792" depart="61.00" departLane="-1508_1" departPos="2.14" departSpeed="0.00" departDelay="0.00" arrival="224.00" arrivalLane="-1601_1" arrivalPos="73.81" arrivalSpeed="13.85" duration="163.00" routeLength="772.44" waitingTime="53.00" waitingCount="6" stopTime="0.00" timeLoss="100.88" rerouteNo="0" devices="tripinfo_random_1714405740078189792" vType="vehicle.kawasaki.ninja" speedFactor="1.03" vaporized=""/>
    <tripinfo id="random_1714405745535131270" depart="95.00" departLane="-1543_1" departPos="0.20" departSpeed="0.00" departDelay="3.00" arrival="225.00" arrivalLane="-1533_1" arrivalPos="77.57" arrivalSpeed="12.11" duration="130.00" routeLength="622.85" waitingTime="61.00" waitingCount="2" stopTime="0.00" timeLoss="80.90" rerouteNo="0" devices="tripinfo_random_1714405745535131270" vType="vehicle.yamaha.yzf" speedFactor="1.14" vaporized=""/>
    <tripinfo id="random_1714405765634435342" depart="211.00" departLane="-1588_1" departPos="5.34" departSpeed="0.00" departDelay="0.00" arrival="225.00" arrivalLane="-1493_1" arrivalPos="68.71" arrivalSpeed="9.32" duration="14.00" routeLength="119.51" waitingTime="0.00" waitingCount="0" stopTime="0.00" timeLoss="6.43" rerouteNo="0" devices="tripinfo_random_1714405765634435342" vType="vehicle.dodge.charger_police_2020" speedFactor="1.19" vaporized=""/>
    <tripinfo id="random_1714405729869424857" depart="24.00" departLane="-1586_1" departPos="1.61" departSpeed="0.00" departDelay="0.00" arrival="230.00" arrivalLane="-1582_1" arrivalPos="43.33" arrivalSpeed="5.19" duration="206.00" routeLength="1060.85" waitingTime="0.00" waitingCount="0" stopTime="0.00" timeLoss="14.39" rerouteNo="0" devices="tripinfo_random_1714405729869424857" vType="vehicle.bh.crossbike" speedFactor="1.03" vaporized=""/>
    <tripinfo id="random_1714405741441395530" depart="68.00" departLane="-1554_1" departPos="0.20" departSpeed="0.00" departDelay="0.00" arrival="232.00" arrivalLane="-1364_1" arrivalPos="117.41" arrivalSpeed="15.44" duration="164.00" routeLength="660.63" waitingTime="74.00" waitingCount="3" stopTime="0.00" timeLoss="120.03" rerouteNo="0" devices="tripinfo_random_1714405741441395530" vType="vehicle.citroen.c3" speedFactor="1.12" vaporized=""/>
    <tripinfo id="random_1714405747922052615" depart="107.00" departLane="-1351_1" departPos="1.76" departSpeed="0.00" departDelay="0.00" arrival="233.00" arrivalLane="-1574_2" arrivalPos="42.90" arrivalSpeed="5.49" duration="126.00" routeLength="646.90" waitingTime="0.00" waitingCount="0" stopTime="0.00" timeLoss="9.56" rerouteNo="0" devices="tripinfo_random_1714405747922052615" vType="vehicle.diamondback.century" speedFactor="1.09" vaporized=""/>
    <tripinfo id="random_1714405738206021075" depart="49.00" departLane="-1470_1" departPos="0.93" departSpeed="0.00" departDelay="0.00" arrival="237.00" arrivalLane="-1557_1" arrivalPos="29.37" arrivalSpeed="12.87" duration="188.00" routeLength="884.47" waitingTime="87.00" waitingCount="1" stopTime="0.00" timeLoss="115.15" rerouteNo="0" devices="tripinfo_random_1714405738206021075" vType="DEFAULT_CONTAINERTYPE" speedFactor="1.00" vaporized=""/>
    <tripinfo id="random_1714405737862217392" depart="47.00" departLane="-1466_1" departPos="4.54" departSpeed="0.00" departDelay="0.00" arrival="243.00" arrivalLane="-1442_1" arrivalPos="0.33" arrivalSpeed="5.46" duration="196.00" routeLength="1343.77" waitingTime="0.00" waitingCount="0" stopTime="0.00" timeLoss="73.76" rerouteNo="0" devices="tripinfo_random_1714405737862217392" vType="vehicle.volkswagen.t2_2021" speedFactor="0.90" vaporized=""/>
    <tripinfo id="random_1714405728628731096" depart="22.00" departLane="-1387_1" departPos="1.76" departSpeed="0.00" departDelay="0.00" arrival="244.00" arrivalLane="-1375_0" arrivalPos="87.23" arrivalSpeed="5.38" duration="222.00" routeLength="1148.95" waitingTime="0.00" waitingCount="0" stopTime="0.00" timeLoss="15.05" rerouteNo="0" devices="tripinfo_random_1714405728628731096" vType="vehicle.diamondback.century" speedFactor="0.94" vaporized=""/>
    <tripinfo id="random_1714405757972498660" depart="167.00" departLane="-1462_0" departPos="0.20" departSpeed="0.00" departDelay="2.00" arrival="247.00" arrivalLane="-1545_1" arrivalPos="1020.48" arrivalSpeed="13.96" duration="80.00" routeLength="1065.25" waitingTime="0.00" waitingCount="0" stopTime="0.00" timeLoss="7.76" rerouteNo="0" devices="tripinfo_random_1714405757972498660" vType="vehicle.citroen.c3" speedFactor="1.07" vaporized=""/>
    <tripinfo id="random_1714405752012764219" depart="131.00" departLane="-1492_1" departPos="1.61" departSpeed="0.00" departDelay="1.00" arrival="250.00" arrivalLane="-1561_1" arrivalPos="6.57" arrivalSpeed="5.23" duration="119.00" routeLength="606.63" waitingTime="0.00" waitingCount="0" stopTime="0.00" timeLoss="9.34" rerouteNo="0" devices="tripinfo_random_1714405752012764219" vType="vehicle.bh.crossbike" speedFactor="0.97" vaporized=""/>
    <tripinfo id="random_1714405749803834171" depart="119.00" departLane="-1493_1" departPos="4.28" departSpeed="0.00" departDelay="1.00" arrival="256.00" arrivalLane="-1531_1" arrivalPos="58.33" arrivalSpeed="11.27" duration="137.00" routeLength="431.73" waitingTime="71.00" waitingCount="1" stopTime="0.00" timeLoss="101.55" rerouteNo="0" devices="tripinfo_random_1714405749803834171" vType="vehicle.audi.tt" speedFactor="1.02" vaporized=""/>
    <tripinfo id="random_1714405739405137117" depart="57.00" departLane="-1455_1" departPos="2.34" departSpeed="0.00" departDelay="0.00" arrival="257.00" arrivalLane="-1588_1" arrivalPos="19.31" arrivalSpeed="13.47" duration="200.00" routeLength="1317.83" waitingTime="43.00" waitingCount="2" stopTime="0.00" timeLoss="94.04" rerouteNo="0" devices="tripinfo_random_1714405739405137117" vType="vehicle.audi.a2" speedFactor="0.97" vaporized=""/>
    <tripinfo id="random_1714405756435928472" depart="156.00" departLane="-1469_1" departPos="5.07" departSpeed="0.00" departDelay="0.00" arrival="259.00" arrivalLane="-1485_1" arrivalPos="45.95" arrivalSpeed="13.62" duration="103.00" routeLength="606.00" waitingTime="45.00" waitingCount="1" stopTime="0.00" timeLoss="58.98" rerouteNo="0" devices="tripinfo_random_1714405756435928472" vType="vehicle.dodge.charger_police" speedFactor="1.00" vaporized=""/>
    <tripinfo id="random_1714405765121444720" depart="207.00" departLane="-1576_2" departPos="2.31" departSpeed="0.00" departDelay="0.00" arrival="259.00" arrivalLane="-1465_2" arrivalPos="0.20" arrivalSpeed="4.50" duration="52.00" routeLength="417.41" waitingTime="0.00" waitingCount="0" stopTime="0.00" timeLoss="14.54" rerouteNo="0" devices="tripinfo_random_1714405765121444720" vType="vehicle.micro.microlino" speedFactor="1.06" vaporized=""/>
    <tripinfo id="random_1714405733498218150" depart="30.00" departLane="-1540_1" departPos="1.94" departSpeed="0.00" departDelay="0.00" arrival="260.00" arrivalLane="-1571_1" arrivalPos="219.69" arrivalSpeed="5.23" duration="230.00" routeLength="1144.87" waitingTime="4.00" waitingCount="1" stopTime="0.00" timeLoss="23.47" rerouteNo="0" devices="tripinfo_random_1714405733498218150" vType="vehicle.gazelle.omafiets" speedFactor="1.05" vaporized=""/>
    <tripinfo id="random_1714405751164668539" depart="126.00" departLane="-1553_2" departPos="3.81" departSpeed="0.00" departDelay="0.00" arrival="266.00" arrivalLane="-1558_1" arrivalPos="99.47" arrivalSpeed="10.84" duration="140.00" routeLength="1324.86" waitingTime="4.00" waitingCount="1" stopTime="0.00" timeLoss="51.19" rerouteNo="0" devices="tripinfo_random_1714405751164668539" vType="vehicle.audi.a2" speedFactor="1.15" vaporized=""/>
    <tripinfo id="random_1714405744336005201" depart="85.00" departLane="-1562_1" departPos="1.92" departSpeed="0.00" departDelay="0.00" arrival="271.00" arrivalLane="-1446_1" arrivalPos="44.60" arrivalSpeed="11.65" duration="186.00" routeLength="1099.53" waitingTime="58.00" waitingCount="3" stopTime="0.00" timeLoss="96.03" rerouteNo="0" devices="tripinfo_random_1714405744336005201" vType="vehicle.vespa.zx125" speedFactor="0.96" vaporized=""/>
    <tripinfo id="random_1714405738880038649" depart="55.00" departLane="-1586_1" departPos="8.57" departSpeed="0.00" departDelay="2.00" arrival="279.00" arrivalLane="-1576_1" arrivalPos="78.10" arrivalSpeed="14.75" duration="224.00" routeLength="1124.24" waitingTime="47.00" waitingCount="2" stopTime="0.00" timeLoss="136.55" rerouteNo="0" devices="tripinfo_random_1714405738880038649" vType="vehicle.carlamotors.firetruck" speedFactor="1.12" vaporized=""/>