<?xml version="1.0" encoding="UTF-8"?>

<!-- generated on 2024-05-15 01:12:04 by Eclipse SUMO GUI Version 1.12.0
<configuration xmlns:xsi="http://www.w3.org/2001/XMLSchema-instance" xsi:noNamespaceSchemaLocation="http://sumo.dlr.de/xsd/sumoConfiguration.xsd">

    <input>
        <net-file value="../Adapters/co_simulation/sumo_configuration/simple-map/UA.net.xml"/>
        <route-files value="../Adapters/co_simulation/sumo_configuration/simple-map/carlavtypes.rou.xml,../Adapters/co_simulation/sumo_configuration/simple-map/simple-map.rou.xml"/>
    </input>

    <output>
        <tripinfo-output value="tripinfo.xml"/>
    </output>

    <traci_server>
        <remote-port value="50767"/>
        <num-clients value="1"/>
    </traci_server>

    <gui_only>
        <gui-settings-file value="../Adapters/co_simulation/sumo_configuration/simple-map/simple-map.view.xml"/>
    </gui_only>

</configuration>
-->

<tripinfos xmlns:xsi="http://www.w3.org/2001/XMLSchema-instance" xsi:noNamespaceSchemaLocation="http://sumo.dlr.de/xsd/tripinfo_file.xsd">
<<<<<<< Updated upstream
=======
    <tripinfo id="0" depart="3.00" departLane="-1466_1" departPos="5.34" departSpeed="0.00" departDelay="0.00" arrival="12.00" arrivalLane="-1465_1" arrivalPos="11.38" arrivalSpeed="13.75" duration="9.00" routeLength="73.18" waitingTime="0.00" waitingCount="0" stopTime="0.00" timeLoss="3.49" rerouteNo="0" devices="tripinfo_0" vType="vehicle.dodge.charger_police_2020" speedFactor="1.06" vaporized=""/>
    <tripinfo id="randomCar_1715732204922840496" depart="449.00" departLane="-1408_1" departPos="0.20" departSpeed="0.00" departDelay="0.00" arrival="469.00" arrivalLane="-1474_1" arrivalPos="118.69" arrivalSpeed="20.95" duration="20.00" routeLength="221.94" waitingTime="0.00" waitingCount="0" stopTime="0.00" timeLoss="6.38" rerouteNo="0" devices="tripinfo_randomCar_1715732204922840496" vType="vehicle.dodge.charger_police_2020" speedFactor="1.01" vaporized=""/>
    <tripinfo id="randomCar_1715732209262797073" depart="456.00" departLane="-1529_1" departPos="5.34" departSpeed="0.00" departDelay="0.00" arrival="480.00" arrivalLane="-1614_1" arrivalPos="110.20" arrivalSpeed="8.25" duration="24.00" routeLength="184.12" waitingTime="0.00" waitingCount="0" stopTime="0.00" timeLoss="4.80" rerouteNo="0" devices="tripinfo_randomCar_1715732209262797073" vType="vehicle.dodge.charger_police_2020" speedFactor="1.00" vaporized=""/>
    <tripinfo id="randomCar_1715732215948063443" depart="473.00" departLane="-1642_1" departPos="5.34" departSpeed="0.00" departDelay="2.00" arrival="483.00" arrivalLane="-1629_1" arrivalPos="26.02" arrivalSpeed="11.64" duration="10.00" routeLength="76.74" waitingTime="0.00" waitingCount="0" stopTime="0.00" timeLoss="3.04" rerouteNo="0" devices="tripinfo_randomCar_1715732215948063443" vType="vehicle.dodge.charger_police_2020" speedFactor="0.88" vaporized=""/>
    <tripinfo id="randomCar_1715732204926024196" depart="449.00" departLane="-1435_1" departPos="5.34" departSpeed="0.00" departDelay="0.00" arrival="490.00" arrivalLane="-1603_1" arrivalPos="0.20" arrivalSpeed="9.34" duration="41.00" routeLength="180.90" waitingTime="8.00" waitingCount="2" stopTime="0.00" timeLoss="24.41" rerouteNo="0" devices="tripinfo_randomCar_1715732204926024196" vType="vehicle.dodge.charger_police_2020" speedFactor="1.01" vaporized=""/>
    <tripinfo id="randomCar_1715732203681674674" depart="448.00" departLane="-1654_1" departPos="0.20" departSpeed="0.00" departDelay="0.00" arrival="496.00" arrivalLane="-1522_2" arrivalPos="192.03" arrivalSpeed="13.06" duration="48.00" routeLength="569.17" waitingTime="0.00" waitingCount="0" stopTime="0.00" timeLoss="5.71" rerouteNo="0" devices="tripinfo_randomCar_1715732203681674674" vType="vehicle.dodge.charger_police_2020" speedFactor="1.00" vaporized=""/>
    <tripinfo id="randomCar_1715732206783112629" depart="453.00" departLane="-1421_1" departPos="5.34" departSpeed="0.00" departDelay="0.00" arrival="500.00" arrivalLane="-1655_2" arrivalPos="0.20" arrivalSpeed="9.81" duration="47.00" routeLength="502.96" waitingTime="0.00" waitingCount="0" stopTime="0.00" timeLoss="9.89" rerouteNo="0" devices="tripinfo_randomCar_1715732206783112629" vType="vehicle.dodge.charger_police_2020" speedFactor="1.00" vaporized=""/>
    <tripinfo id="randomCar_1715732215574604718" depart="474.00" departLane="-1648_1" departPos="0.25" departSpeed="0.00" departDelay="5.00" arrival="501.00" arrivalLane="-1537_1" arrivalPos="45.63" arrivalSpeed="12.11" duration="27.00" routeLength="172.80" waitingTime="3.00" waitingCount="1" stopTime="0.00" timeLoss="9.73" rerouteNo="0" devices="tripinfo_randomCar_1715732215574604718" vType="vehicle.dodge.charger_police_2020" speedFactor="0.93" vaporized=""/>
    <tripinfo id="randomCar_1715732213725097495" depart="464.00" departLane="-1410_1" departPos="5.34" departSpeed="0.00" departDelay="0.00" arrival="510.00" arrivalLane="-1425_1" arrivalPos="70.17" arrivalSpeed="15.10" duration="46.00" routeLength="502.98" waitingTime="0.00" waitingCount="0" stopTime="0.00" timeLoss="10.67" rerouteNo="0" devices="tripinfo_randomCar_1715732213725097495" vType="vehicle.dodge.charger_police_2020" speedFactor="1.11" vaporized=""/>
    <tripinfo id="randomCar_1715732207399590340" depart="453.00" departLane="-1473_1" departPos="5.34" departSpeed="0.00" departDelay="0.00" arrival="512.00" arrivalLane="-1564_1" arrivalPos="56.13" arrivalSpeed="14.59" duration="59.00" routeLength="745.86" waitingTime="0.00" waitingCount="0" stopTime="0.00" timeLoss="15.43" rerouteNo="0" devices="tripinfo_randomCar_1715732207399590340" vType="vehicle.dodge.charger_police_2020" speedFactor="1.14" vaporized=""/>
    <tripinfo id="randomCar_1715732204300718285" depart="449.00" departLane="-1482_1" departPos="0.33" departSpeed="0.00" departDelay="1.00" arrival="514.00" arrivalLane="-1522_1" arrivalPos="192.03" arrivalSpeed="12.53" duration="65.00" routeLength="675.76" waitingTime="1.00" waitingCount="1" stopTime="0.00" timeLoss="10.42" rerouteNo="0" devices="tripinfo_randomCar_1715732204300718285" vType="vehicle.dodge.charger_police_2020" speedFactor="0.94" vaporized=""/>
    <tripinfo id="randomCar_1715732211123958121" depart="459.00" departLane="-1645_1" departPos="5.34" departSpeed="0.00" departDelay="0.00" arrival="520.00" arrivalLane="-1507_1" arrivalPos="287.82" arrivalSpeed="14.79" duration="61.00" routeLength="861.00" waitingTime="0.00" waitingCount="0" stopTime="0.00" timeLoss="12.96" rerouteNo="0" devices="tripinfo_randomCar_1715732211123958121" vType="vehicle.dodge.charger_police_2020" speedFactor="1.09" vaporized=""/>
    <tripinfo id="randomCar_1715732209257737173" depart="456.00" departLane="-1579_1" departPos="5.34" departSpeed="0.00" departDelay="0.00" arrival="521.00" arrivalLane="-1486_1" arrivalPos="44.60" arrivalSpeed="11.75" duration="65.00" routeLength="611.96" waitingTime="0.00" waitingCount="0" stopTime="0.00" timeLoss="11.46" rerouteNo="0" devices="tripinfo_randomCar_1715732209257737173" vType="vehicle.dodge.charger_police_2020" speedFactor="0.87" vaporized=""/>
    <tripinfo id="randomCar_1715732213730572595" depart="464.00" departLane="-1417_1" departPos="5.34" departSpeed="0.00" departDelay="0.00" arrival="524.00" arrivalLane="-1599_1" arrivalPos="63.52" arrivalSpeed="13.32" duration="60.00" routeLength="610.54" waitingTime="0.00" waitingCount="0" stopTime="0.00" timeLoss="13.50" rerouteNo="0" devices="tripinfo_randomCar_1715732213730572595" vType="vehicle.dodge.charger_police_2020" speedFactor="0.98" vaporized=""/>
    <tripinfo id="randomCar_1715732215575802618" depart="469.00" departLane="-1657_1" departPos="0.48" departSpeed="0.00" departDelay="0.00" arrival="524.00" arrivalLane="-1512_1" arrivalPos="0.20" arrivalSpeed="9.24" duration="55.00" routeLength="667.15" waitingTime="0.00" waitingCount="0" stopTime="0.00" timeLoss="8.36" rerouteNo="0" devices="tripinfo_randomCar_1715732215575802618" vType="vehicle.dodge.charger_police_2020" speedFactor="1.05" vaporized=""/>
    <tripinfo id="randomCar_1715732210498496094" depart="458.00" departLane="-1516_1" departPos="5.34" departSpeed="0.00" departDelay="0.00" arrival="526.00" arrivalLane="-1581_1" arrivalPos="110.35" arrivalSpeed="12.46" duration="68.00" routeLength="750.70" waitingTime="0.00" waitingCount="0" stopTime="0.00" timeLoss="10.32" rerouteNo="0" devices="tripinfo_randomCar_1715732210498496094" vType="vehicle.dodge.charger_police_2020" speedFactor="0.97" vaporized=""/>
    <tripinfo id="randomCar_1715732209882392684" depart="457.00" departLane="-1607_1" departPos="5.34" departSpeed="0.00" departDelay="0.00" arrival="527.00" arrivalLane="-1445_1" arrivalPos="31.10" arrivalSpeed="13.01" duration="70.00" routeLength="771.16" waitingTime="0.00" waitingCount="0" stopTime="0.00" timeLoss="10.82" rerouteNo="0" devices="tripinfo_randomCar_1715732209882392684" vType="vehicle.dodge.charger_police_2020" speedFactor="0.96" vaporized=""/>
    <tripinfo id="randomCar_1715732204298113285" depart="448.00" departLane="-1664_1" departPos="5.34" departSpeed="0.00" departDelay="0.00" arrival="532.00" arrivalLane="-1657_2" arrivalPos="0.48" arrivalSpeed="10.35" duration="84.00" routeLength="773.94" waitingTime="7.00" waitingCount="1" stopTime="0.00" timeLoss="27.40" rerouteNo="0" devices="tripinfo_randomCar_1715732204298113285" vType="vehicle.dodge.charger_police_2020" speedFactor="1.03" vaporized=""/>
    <tripinfo id="randomCar_1715732214831050468" depart="471.00" departLane="-1511_1" departPos="0.20" departSpeed="0.00" departDelay="4.00" arrival="532.00" arrivalLane="-1655_2" arrivalPos="0.20" arrivalSpeed="10.84" duration="61.00" routeLength="696.12" waitingTime="0.00" waitingCount="0" stopTime="0.00" timeLoss="13.45" rerouteNo="0" devices="tripinfo_randomCar_1715732214831050468" vType="vehicle.dodge.charger_police_2020" speedFactor="1.15" vaporized=""/>
    <tripinfo id="randomCar_1715732214089905719" depart="465.00" departLane="-1661_1" departPos="5.34" departSpeed="0.00" departDelay="0.00" arrival="533.00" arrivalLane="-1632_1" arrivalPos="41.07" arrivalSpeed="10.15" duration="68.00" routeLength="657.08" waitingTime="0.00" waitingCount="0" stopTime="0.00" timeLoss="7.55" rerouteNo="0" devices="tripinfo_randomCar_1715732214089905719" vType="vehicle.dodge.charger_police_2020" speedFactor="0.80" vaporized=""/>
    <tripinfo id="randomCar_1715732206163801218" depart="451.00" departLane="-1544_1" departPos="5.34" departSpeed="0.00" departDelay="0.00" arrival="538.00" arrivalLane="-1656_2" arrivalPos="1.57" arrivalSpeed="12.52" duration="87.00" routeLength="769.42" waitingTime="1.00" waitingCount="1" stopTime="0.00" timeLoss="20.85" rerouteNo="0" devices="tripinfo_randomCar_1715732206163801218" vType="vehicle.dodge.charger_police_2020" speedFactor="0.89" vaporized=""/>
    <tripinfo id="randomCar_1715732213352707470" depart="463.00" departLane="-1583_1" departPos="0.20" departSpeed="0.00" departDelay="0.00" arrival="538.00" arrivalLane="-1554_1" arrivalPos="152.48" arrivalSpeed="15.19" duration="75.00" routeLength="753.51" waitingTime="11.00" waitingCount="1" stopTime="0.00" timeLoss="23.76" rerouteNo="0" devices="tripinfo_randomCar_1715732213352707470" vType="vehicle.dodge.charger_police_2020" speedFactor="1.10" vaporized=""/>
    <tripinfo id="randomCar_1715732213726970095" depart="464.00" departLane="-1616_2" departPos="5.34" departSpeed="0.00" departDelay="0.00" arrival="539.00" arrivalLane="-1529_2" arrivalPos="78.96" arrivalSpeed="12.39" duration="75.00" routeLength="273.73" waitingTime="38.00" waitingCount="1" stopTime="0.00" timeLoss="47.04" rerouteNo="0" devices="tripinfo_randomCar_1715732213726970095" vType="vehicle.dodge.charger_police_2020" speedFactor="0.93" vaporized=""/>
    <tripinfo id="randomCar_1715732214462494844" depart="467.00" departLane="-1550_1" departPos="5.34" departSpeed="0.00" departDelay="1.00" arrival="543.00" arrivalLane="-1616_1" arrivalPos="109.27" arrivalSpeed="9.32" duration="76.00" routeLength="569.44" waitingTime="2.00" waitingCount="2" stopTime="0.00" timeLoss="31.03" rerouteNo="0" devices="tripinfo_randomCar_1715732214462494844" vType="vehicle.dodge.charger_police_2020" speedFactor="1.13" vaporized=""/>
    <tripinfo id="randomCar_1715732208640525862" depart="455.00" departLane="-1538_1" departPos="5.34" departSpeed="0.00" departDelay="0.00" arrival="544.00" arrivalLane="-1542_1" arrivalPos="1.20" arrivalSpeed="11.31" duration="89.00" routeLength="239.19" waitingTime="56.00" waitingCount="1" stopTime="0.00" timeLoss="71.47" rerouteNo="0" devices="tripinfo_randomCar_1715732208640525862" vType="vehicle.dodge.charger_police_2020" speedFactor="0.92" vaporized=""/>
    <tripinfo id="randomCar_1715732203679990074" depart="447.00" departLane="-1482_1" departPos="0.33" departSpeed="0.00" departDelay="0.00" arrival="546.00" arrivalLane="-1613_2" arrivalPos="90.29" arrivalSpeed="3.55" duration="99.00" routeLength="526.70" waitingTime="41.00" waitingCount="2" stopTime="0.00" timeLoss="61.74" rerouteNo="0" devices="tripinfo_randomCar_1715732203679990074" vType="vehicle.dodge.charger_police_2020" speedFactor="1.09" vaporized="traci"/>
    <tripinfo id="randomCar_1715732204299364485" depart="448.00" departLane="-1540_1" departPos="5.34" departSpeed="0.00" departDelay="0.00" arrival="546.00" arrivalLane=":92_2_1" arrivalPos="1.46" arrivalSpeed="3.28" duration="98.00" routeLength="1002.30" waitingTime="0.00" waitingCount="0" stopTime="0.00" timeLoss="29.29" rerouteNo="0" devices="tripinfo_randomCar_1715732204299364485" vType="vehicle.dodge.charger_police_2020" speedFactor="0.98" vaporized="traci"/>
    <tripinfo id="randomCar_1715732204304014385" depart="449.00" departLane="-1444_1" departPos="5.34" departSpeed="0.00" departDelay="0.00" arrival="546.00" arrivalLane="-1613_2" arrivalPos="14.15" arrivalSpeed="0.00" duration="97.00" routeLength="466.46" waitingTime="32.00" waitingCount="3" stopTime="0.00" timeLoss="64.73" rerouteNo="0" devices="tripinfo_randomCar_1715732204304014385" vType="vehicle.dodge.charger_police_2020" speedFactor="1.13" vaporized="traci"/>
    <tripinfo id="randomCar_1715732204919542996" depart="449.00" departLane="-1417_1" departPos="5.34" departSpeed="0.00" departDelay="0.00" arrival="546.00" arrivalLane=":32_4_1" arrivalPos="11.68" arrivalSpeed="0.00" duration="97.00" routeLength="461.51" waitingTime="46.00" waitingCount="2" stopTime="0.00" timeLoss="61.80" rerouteNo="0" devices="tripinfo_randomCar_1715732204919542996" vType="vehicle.dodge.charger_police_2020" speedFactor="1.04" vaporized="traci"/>
    <tripinfo id="randomCar_1715732204920511096" depart="449.00" departLane="-1516_1" departPos="5.34" departSpeed="0.00" departDelay="0.00" arrival="546.00" arrivalLane="-1615_1" arrivalPos="25.39" arrivalSpeed="8.57" duration="97.00" routeLength="976.34" waitingTime="8.00" waitingCount="1" stopTime="0.00" timeLoss="34.79" rerouteNo="0" devices="tripinfo_randomCar_1715732204920511096" vType="vehicle.dodge.charger_police_2020" speedFactor="1.06" vaporized="traci"/>
    <tripinfo id="randomCar_1715732204921326496" depart="449.00" departLane="-1630_1" departPos="5.34" departSpeed="0.00" departDelay="0.00" arrival="546.00" arrivalLane="-1622_2" arrivalPos="79.81" arrivalSpeed="0.00" duration="97.00" routeLength="338.23" waitingTime="61.00" waitingCount="2" stopTime="0.00" timeLoss="72.22" rerouteNo="0" devices="tripinfo_randomCar_1715732204921326496" vType="vehicle.dodge.charger_police_2020" speedFactor="1.05" vaporized="traci"/>
    <tripinfo id="randomCar_1715732204925005096" depart="449.00" departLane="-1466_1" departPos="5.34" departSpeed="0.00" departDelay="0.00" arrival="546.00" arrivalLane="-1556_1" arrivalPos="68.04" arrivalSpeed="13.15" duration="97.00" routeLength="1155.43" waitingTime="0.00" waitingCount="0" stopTime="0.00" timeLoss="13.02" rerouteNo="0" devices="tripinfo_randomCar_1715732204925005096" vType="vehicle.dodge.charger_police_2020" speedFactor="1.03" vaporized="traci"/>
    <tripinfo id="randomCar_1715732204927657096" depart="450.00" departLane="-1447_1" departPos="5.34" departSpeed="0.00" departDelay="0.00" arrival="546.00" arrivalLane=":124_0_1" arrivalPos="0.50" arrivalSpeed="6.40" duration="96.00" routeLength="1055.78" waitingTime="0.00" waitingCount="0" stopTime="0.00" timeLoss="27.40" rerouteNo="0" devices="tripinfo_randomCar_1715732204927657096" vType="vehicle.dodge.charger_police_2020" speedFactor="1.03" vaporized="traci"/>
    <tripinfo id="randomCar_1715732205538824707" depart="450.00" departLane="-1593_2" departPos="5.34" departSpeed="0.00" departDelay="0.00" arrival="546.00" arrivalLane="-1643_1" arrivalPos="12.03" arrivalSpeed="10.56" duration="96.00" routeLength="909.27" waitingTime="9.00" waitingCount="1" stopTime="0.00" timeLoss="29.06" rerouteNo="0" devices="tripinfo_randomCar_1715732205538824707" vType="vehicle.dodge.charger_police_2020" speedFactor="1.08" vaporized="traci"/>
    <tripinfo id="randomCar_1715732205540806907" depart="450.00" departLane="-1623_1" departPos="5.34" departSpeed="0.00" departDelay="0.00" arrival="546.00" arrivalLane="-1613_2" arrivalPos="78.47" arrivalSpeed="1.58" duration="96.00" routeLength="685.19" waitingTime="32.00" waitingCount="1" stopTime="0.00" timeLoss="48.81" rerouteNo="0" devices="tripinfo_randomCar_1715732205540806907" vType="vehicle.dodge.charger_police_2020" speedFactor="1.06" vaporized="traci"/>
    <tripinfo id="randomCar_1715732205542644607" depart="451.00" departLane="-1445_1" departPos="5.34" departSpeed="0.00" departDelay="0.00" arrival="546.00" arrivalLane="-1613_2" arrivalPos="60.70" arrivalSpeed="0.11" duration="95.00" routeLength="443.14" waitingTime="41.00" waitingCount="2" stopTime="0.00" timeLoss="59.11" rerouteNo="0" devices="tripinfo_randomCar_1715732205542644607" vType="vehicle.dodge.charger_police_2020" speedFactor="0.97" vaporized="traci"/>
    <tripinfo id="randomCar_1715732206158962218" depart="452.00" departLane="-1435_1" departPos="5.34" departSpeed="0.00" departDelay="1.00" arrival="546.00" arrivalLane="-1467_1" arrivalPos="103.54" arrivalSpeed="0.00" duration="94.00" routeLength="701.26" waitingTime="27.00" waitingCount="2" stopTime="0.00" timeLoss="54.73" rerouteNo="0" devices="tripinfo_randomCar_1715732206158962218" vType="vehicle.dodge.charger_police_2020" speedFactor="1.04" vaporized="traci"/>
    <tripinfo id="randomCar_1715732206160614318" depart="452.00" departLane="-1655_1" departPos="0.20" departSpeed="0.00" departDelay="1.00" arrival="546.00" arrivalLane="-1613_2" arrivalPos="139.08" arrivalSpeed="1.17" duration="94.00" routeLength="480.58" waitingTime="37.00" waitingCount="2" stopTime="0.00" timeLoss="52.89" rerouteNo="0" devices="tripinfo_randomCar_1715732206160614318" vType="vehicle.dodge.charger_police_2020" speedFactor="0.88" vaporized="traci"/>
    <tripinfo id="randomCar_1715732206164591318" depart="452.00" departLane="-1650_1" departPos="5.34" departSpeed="0.00" departDelay="0.00" arrival="546.00" arrivalLane="-1609_2" arrivalPos="59.92" arrivalSpeed="0.00" duration="94.00" routeLength="884.87" waitingTime="12.00" waitingCount="1" stopTime="0.00" timeLoss="32.57" rerouteNo="0" devices="tripinfo_randomCar_1715732206164591318" vType="vehicle.dodge.charger_police_2020" speedFactor="1.08" vaporized="traci"/>
    <tripinfo id="randomCar_1715732206778507929" depart="452.00" departLane="-1413_1" departPos="5.34" departSpeed="0.00" departDelay="0.00" arrival="546.00" arrivalLane="-1616_1" arrivalPos="84.19" arrivalSpeed="7.25" duration="94.00" routeLength="710.59" waitingTime="3.00" waitingCount="1" stopTime="0.00" timeLoss="29.47" rerouteNo="0" devices="tripinfo_randomCar_1715732206778507929" vType="vehicle.dodge.charger_police_2020" speedFactor="0.94" vaporized="traci"/>
    <tripinfo id="randomCar_1715732206780051929" depart="452.00" departLane="-1592_1" departPos="5.34" departSpeed="0.00" departDelay="0.00" arrival="546.00" arrivalLane="-1477_1" arrivalPos="7.17" arrivalSpeed="8.91" duration="94.00" routeLength="833.09" waitingTime="5.00" waitingCount="1" stopTime="0.00" timeLoss="24.74" rerouteNo="0" devices="tripinfo_randomCar_1715732206780051929" vType="vehicle.dodge.charger_police_2020" speedFactor="0.92" vaporized="traci"/>
    <tripinfo id="randomCar_1715732206781641029" depart="452.00" departLane="-1667_1" departPos="0.20" departSpeed="0.00" departDelay="0.00" arrival="546.00" arrivalLane="-1613_2" arrivalPos="103.20" arrivalSpeed="3.78" duration="94.00" routeLength="550.38" waitingTime="33.00" waitingCount="1" stopTime="0.00" timeLoss="54.03" rerouteNo="0" devices="tripinfo_randomCar_1715732206781641029" vType="vehicle.dodge.charger_police_2020" speedFactor="1.08" vaporized="traci"/>
    <tripinfo id="randomCar_1715732207397742640" depart="454.00" departLane="-1657_1" departPos="0.48" departSpeed="0.00" departDelay="1.00" arrival="546.00" arrivalLane=":10_2_2" arrivalPos="12.14" arrivalSpeed="6.21" duration="92.00" routeLength="482.34" waitingTime="42.00" waitingCount="2" stopTime="0.00" timeLoss="61.35" rerouteNo="0" devices="tripinfo_randomCar_1715732207397742640" vType="vehicle.dodge.charger_police_2020" speedFactor="1.18" vaporized="traci"/>
    <tripinfo id="randomCar_1715732207400970640" depart="453.00" departLane="-1634_1" departPos="5.34" departSpeed="0.00" departDelay="0.00" arrival="546.00" arrivalLane=":128_3_0" arrivalPos="9.78" arrivalSpeed="8.79" duration="93.00" routeLength="891.95" waitingTime="0.00" waitingCount="0" stopTime="0.00" timeLoss="17.52" rerouteNo="0" devices="tripinfo_randomCar_1715732207400970640" vType="vehicle.dodge.charger_police_2020" speedFactor="0.89" vaporized="traci"/>
    <tripinfo id="randomCar_1715732207402726440" depart="454.00" departLane="-1665_1" departPos="5.34" departSpeed="0.00" departDelay="1.00" arrival="546.00" arrivalLane="-1645_1" arrivalPos="156.48" arrivalSpeed="23.51" duration="92.00" routeLength="739.48" waitingTime="21.00" waitingCount="1" stopTime="0.00" timeLoss="40.62" rerouteNo="0" devices="tripinfo_randomCar_1715732207402726440" vType="vehicle.dodge.charger_police_2020" speedFactor="1.07" vaporized="traci"/>
    <tripinfo id="randomCar_1715732207404295740" depart="453.00" departLane="-1522_1" departPos="5.34" departSpeed="0.00" departDelay="0.00" arrival="546.00" arrivalLane="-1613_2" arrivalPos="45.10" arrivalSpeed="0.00" duration="93.00" routeLength="676.61" waitingTime="24.00" waitingCount="2" stopTime="0.00" timeLoss="37.50" rerouteNo="0" devices="tripinfo_randomCar_1715732207404295740" vType="vehicle.dodge.charger_police_2020" speedFactor="0.91" vaporized="traci"/>
    <tripinfo id="randomCar_1715732207405671640" depart="453.00" departLane="-1417_1" departPos="5.34" departSpeed="0.00" departDelay="0.00" arrival="546.00" arrivalLane="-1555_1" arrivalPos="86.38" arrivalSpeed="0.00" duration="93.00" routeLength="449.73" waitingTime="42.00" waitingCount="2" stopTime="0.00" timeLoss="58.70" rerouteNo="0" devices="tripinfo_randomCar_1715732207405671640" vType="vehicle.dodge.charger_police_2020" speedFactor="1.03" vaporized="traci"/>
    <tripinfo id="randomCar_1715732207407020840" depart="454.00" departLane="-1638_1" departPos="5.34" departSpeed="0.00" departDelay="0.00" arrival="546.00" arrivalLane="-1467_1" arrivalPos="80.32" arrivalSpeed="0.00" duration="92.00" routeLength="651.37" waitingTime="22.00" waitingCount="3" stopTime="0.00" timeLoss="46.61" rerouteNo="0" devices="tripinfo_randomCar_1715732207407020840" vType="vehicle.dodge.charger_police_2020" speedFactor="1.07" vaporized="traci"/>
    <tripinfo id="randomCar_1715732208019308351" depart="454.00" departLane="-1618_1" departPos="5.34" departSpeed="0.00" departDelay="0.00" arrival="546.00" arrivalLane="-1613_2" arrivalPos="52.85" arrivalSpeed="0.02" duration="92.00" routeLength="534.63" waitingTime="24.00" waitingCount="1" stopTime="0.00" timeLoss="50.37" rerouteNo="0" devices="tripinfo_randomCar_1715732208019308351" vType="vehicle.dodge.charger_police_2020" speedFactor="1.00" vaporized="traci"/>
    <tripinfo id="randomCar_1715732208020730151" depart="454.00" departLane="-1410_1" departPos="5.34" departSpeed="0.00" departDelay="0.00" arrival="546.00" arrivalLane="-1593_2" arrivalPos="33.74" arrivalSpeed="11.43" duration="92.00" routeLength="556.42" waitingTime="6.00" waitingCount="2" stopTime="0.00" timeLoss="36.20" rerouteNo="0" devices="tripinfo_randomCar_1715732208020730151" vType="vehicle.dodge.charger_police_2020" speedFactor="0.84" vaporized="traci"/>
    <tripinfo id="randomCar_1715732208021801151" depart="454.00" departLane="-1452_1" departPos="5.34" departSpeed="0.00" departDelay="0.00" arrival="546.00" arrivalLane="-1602_1" arrivalPos="143.39" arrivalSpeed="0.00" duration="92.00" routeLength="996.92" waitingTime="8.00" waitingCount="1" stopTime="0.00" timeLoss="20.63" rerouteNo="0" devices="tripinfo_randomCar_1715732208021801151" vType="vehicle.dodge.charger_police_2020" speedFactor="1.03" vaporized="traci"/>
    <tripinfo id="randomCar_1715732208023146451" depart="455.00" departLane="-1413_1" departPos="5.34" departSpeed="0.00" departDelay="0.00" arrival="546.00" arrivalLane="-1616_1" arrivalPos="68.12" arrivalSpeed="7.18" duration="91.00" routeLength="694.53" waitingTime="2.00" waitingCount="1" stopTime="0.00" timeLoss="41.01" rerouteNo="0" devices="tripinfo_randomCar_1715732208023146451" vType="vehicle.dodge.charger_police_2020" speedFactor="1.16" vaporized="traci"/>
    <tripinfo id="randomCar_1715732208638766362" depart="455.00" departLane="-1482_1" departPos="0.33" departSpeed="0.00" departDelay="0.00" arrival="546.00" arrivalLane="-1553_1" arrivalPos="76.68" arrivalSpeed="13.82" duration="91.00" routeLength="785.88" waitingTime="2.00" waitingCount="2" stopTime="0.00" timeLoss="31.92" rerouteNo="0" devices="tripinfo_randomCar_1715732208638766362" vType="vehicle.dodge.charger_police_2020" speedFactor="1.04" vaporized="traci"/>
    <tripinfo id="randomCar_1715732208641316762" depart="455.00" departLane="-1648_1" departPos="0.25" departSpeed="0.00" departDelay="0.00" arrival="546.00" arrivalLane=":125_0_1" arrivalPos="2.89" arrivalSpeed="7.45" duration="91.00" routeLength="915.62" waitingTime="6.00" waitingCount="2" stopTime="0.00" timeLoss="33.01" rerouteNo="0" devices="tripinfo_randomCar_1715732208641316762" vType="vehicle.dodge.charger_police_2020" speedFactor="1.09" vaporized="traci"/>
    <tripinfo id="randomCar_1715732209259185373" depart="456.00" departLane="-1651_1" departPos="5.34" departSpeed="0.00" departDelay="0.00" arrival="546.00" arrivalLane="-1613_2" arrivalPos="6.41" arrivalSpeed="0.00" duration="90.00" routeLength="822.68" waitingTime="12.00" waitingCount="1" stopTime="0.00" timeLoss="29.91" rerouteNo="0" devices="tripinfo_randomCar_1715732209259185373" vType="vehicle.dodge.charger_police_2020" speedFactor="1.04" vaporized="traci"/>
    <tripinfo id="randomCar_1715732209259945873" depart="456.00" departLane="-1576_1" departPos="5.34" departSpeed="0.00" departDelay="0.00" arrival="546.00" arrivalLane="-1609_2" arrivalPos="39.16" arrivalSpeed="7.28" duration="90.00" routeLength="1111.36" waitingTime="0.00" waitingCount="0" stopTime="0.00" timeLoss="15.21" rerouteNo="0" devices="tripinfo_randomCar_1715732209259945873" vType="vehicle.dodge.charger_police_2020" speedFactor="1.11" vaporized="traci"/>
    <tripinfo id="randomCar_1715732209260839473" depart="456.00" departLane="-1577_1" departPos="5.34" departSpeed="0.00" departDelay="0.00" arrival="546.00" arrivalLane="-1622_1" arrivalPos="64.33" arrivalSpeed="0.00" duration="90.00" routeLength="523.05" waitingTime="42.00" waitingCount="1" stopTime="0.00" timeLoss="52.39" rerouteNo="0" devices="tripinfo_randomCar_1715732209260839473" vType="vehicle.dodge.charger_police_2020" speedFactor="1.07" vaporized="traci"/>
    <tripinfo id="randomCar_1715732209262059273" depart="456.00" departLane="-1652_1" departPos="0.20" departSpeed="0.00" departDelay="0.00" arrival="546.00" arrivalLane="-1613_2" arrivalPos="121.84" arrivalSpeed="0.75" duration="90.00" routeLength="506.32" waitingTime="33.00" waitingCount="1" stopTime="0.00" timeLoss="52.95" rerouteNo="0" devices="tripinfo_randomCar_1715732209262059273" vType="vehicle.dodge.charger_police_2020" speedFactor="1.02" vaporized="traci"/>
    <tripinfo id="randomCar_1715732209263517873" depart="456.00" departLane="-1549_1" departPos="5.34" departSpeed="0.00" departDelay="0.00" arrival="546.00" arrivalLane="-1617_1" arrivalPos="49.26" arrivalSpeed="12.23" duration="90.00" routeLength="705.81" waitingTime="3.00" waitingCount="2" stopTime="0.00" timeLoss="27.82" rerouteNo="0" devices="tripinfo_randomCar_1715732209263517873" vType="vehicle.dodge.charger_police_2020" speedFactor="0.97" vaporized="traci"/>
    <tripinfo id="randomCar_1715732209264587473" depart="456.00" departLane="-1522_1" departPos="5.34" departSpeed="0.00" departDelay="0.00" arrival="546.00" arrivalLane="-1613_2" arrivalPos="37.36" arrivalSpeed="0.00" duration="90.00" routeLength="663.32" waitingTime="18.00" waitingCount="1" stopTime="0.00" timeLoss="37.86" rerouteNo="0" devices="tripinfo_randomCar_1715732209264587473" vType="vehicle.dodge.charger_police_2020" speedFactor="0.96" vaporized="traci"/>
    <tripinfo id="randomCar_1715732209265410773" depart="456.00" departLane="-1640_0" departPos="5.34" departSpeed="0.00" departDelay="0.00" arrival="546.00" arrivalLane="-1622_2" arrivalPos="87.55" arrivalSpeed="0.00" duration="90.00" routeLength="308.62" waitingTime="61.00" waitingCount="1" stopTime="0.00" timeLoss="69.88" rerouteNo="0" devices="tripinfo_randomCar_1715732209265410773" vType="vehicle.dodge.charger_police_2020" speedFactor="0.98" vaporized="traci"/>