<?xml version="1.0" encoding="UTF-8"?>

<!-- generated on 2024-04-19 19:16:10 by Eclipse SUMO GUI Version 1.12.0
<configuration xmlns:xsi="http://www.w3.org/2001/XMLSchema-instance" xsi:noNamespaceSchemaLocation="http://sumo.dlr.de/xsd/sumoConfiguration.xsd">

    <input>
        <net-file value="../Adapters/co_simulation/sumo_configuration/simple-map/aveiro.net.xml"/>
        <route-files value="../Adapters/co_simulation/sumo_configuration/simple-map/carlavtypes.rou.xml,../Adapters/co_simulation/sumo_configuration/simple-map/simple-map.rou.xml"/>
    </input>

    <output>
        <tripinfo-output value="tripinfo.xml"/>
    </output>

    <traci_server>
        <remote-port value="43577"/>
        <num-clients value="1"/>
    </traci_server>

    <gui_only>
        <gui-settings-file value="../Adapters/co_simulation/sumo_configuration/simple-map/simple-map.view.xml"/>
        <quit-on-end value="true"/>
    </gui_only>

</configuration>
-->

<tripinfos xmlns:xsi="http://www.w3.org/2001/XMLSchema-instance" xsi:noNamespaceSchemaLocation="http://sumo.dlr.de/xsd/tripinfo_file.xsd">
    <tripinfo id="35047" depart="2.00" departLane="-5257_2" departPos="464.89" departSpeed="0.00" departDelay="-0.50" arrival="3.00" arrivalLane="-5257_2" arrivalPos="464.99" arrivalSpeed="1.88" duration="1.00" routeLength="0.10" waitingTime="0.00" waitingCount="0" stopTime="0.00" timeLoss="0.86" rerouteNo="0" devices="tripinfo_35047" vType="vehicle.audi.a2" speedFactor="0.94" vaporized=""/>
    <tripinfo id="35041" depart="3.00" departLane="-5257_2" departPos="464.89" departSpeed="0.00" departDelay="-0.50" arrival="4.00" arrivalLane="-5257_2" arrivalPos="464.99" arrivalSpeed="1.94" duration="1.00" routeLength="0.10" waitingTime="0.00" waitingCount="0" stopTime="0.00" timeLoss="0.86" rerouteNo="0" devices="tripinfo_35041" vType="vehicle.audi.a2" speedFactor="1.01" vaporized=""/>
    <tripinfo id="35045" depart="4.00" departLane="-5257_2" departPos="464.89" departSpeed="0.00" departDelay="-0.50" arrival="5.00" arrivalLane="-5257_2" arrivalPos="464.99" arrivalSpeed="2.43" duration="1.00" routeLength="0.10" waitingTime="0.00" waitingCount="0" stopTime="0.00" timeLoss="0.84" rerouteNo="0" devices="tripinfo_35045" vType="vehicle.audi.a2" speedFactor="1.08" vaporized=""/>
    <tripinfo id="35046" depart="5.00" departLane="-5257_2" departPos="459.14" departSpeed="0.00" departDelay="-0.50" arrival="8.00" arrivalLane="-5257_2" arrivalPos="464.99" arrivalSpeed="5.50" duration="3.00" routeLength="5.85" waitingTime="0.00" waitingCount="0" stopTime="0.00" timeLoss="2.24" rerouteNo="0" devices="tripinfo_35046" vType="vehicle.audi.a2" speedFactor="1.03" vaporized=""/>
</tripinfos>
