<?xml version="1.0" encoding="UTF-8"?>

<!-- generated on 2024-05-02 03:54:35 by Eclipse SUMO GUI Version 1.12.0
<configuration xmlns:xsi="http://www.w3.org/2001/XMLSchema-instance" xsi:noNamespaceSchemaLocation="http://sumo.dlr.de/xsd/sumoConfiguration.xsd">

    <input>
        <net-file value="../Adapters/co_simulation/sumo_configuration/simple-map/UA.net.xml"/>
        <route-files value="../Adapters/co_simulation/sumo_configuration/simple-map/carlavtypes.rou.xml,../Adapters/co_simulation/sumo_configuration/simple-map/simple-map.rou.xml"/>
    </input>

    <output>
        <tripinfo-output value="tripinfo.xml"/>
    </output>

    <traci_server>
        <remote-port value="45019"/>
        <num-clients value="1"/>
    </traci_server>

    <gui_only>
        <gui-settings-file value="../Adapters/co_simulation/sumo_configuration/simple-map/simple-map.view.xml"/>
    </gui_only>

</configuration>
-->

<tripinfos xmlns:xsi="http://www.w3.org/2001/XMLSchema-instance" xsi:noNamespaceSchemaLocation="http://sumo.dlr.de/xsd/tripinfo_file.xsd">
    <tripinfo id="0" depart="3.00" departLane="-1466_1" departPos="5.34" departSpeed="0.00" departDelay="0.00" arrival="12.00" arrivalLane="-1465_1" arrivalPos="11.38" arrivalSpeed="13.75" duration="9.00" routeLength="73.18" waitingTime="0.00" waitingCount="0" stopTime="0.00" timeLoss="3.49" rerouteNo="0" devices="tripinfo_0" vType="vehicle.dodge.charger_police_2020" speedFactor="1.06" vaporized=""/>
    <tripinfo id="random_1714618914388905635" depart="701.00" departLane="-1655_1" departPos="0.20" departSpeed="0.00" departDelay="0.00" arrival="702.00" arrivalLane="-1655_1" arrivalPos="0.20" arrivalSpeed="1.30" duration="1.00" routeLength="0.00" waitingTime="0.00" waitingCount="0" stopTime="0.00" timeLoss="0.95" rerouteNo="0" devices="tripinfo_random_1714618914388905635" vType="DEFAULT_VEHTYPE" speedFactor="1.01" vaporized=""/>
    <tripinfo id="random_1714618915007449630" depart="702.00" departLane="-1607_1" departPos="6.02" departSpeed="0.00" departDelay="0.00" arrival="731.00" arrivalLane="-1653_1" arrivalPos="7.71" arrivalSpeed="13.28" duration="29.00" routeLength="294.83" waitingTime="0.00" waitingCount="0" stopTime="0.00" timeLoss="5.24" rerouteNo="0" devices="tripinfo_random_1714618915007449630" vType="vehicle.mercedes.sprinter" speedFactor="0.89" vaporized=""/>
    <tripinfo id="random_1714618918110183600" depart="707.00" departLane="-1483_1" departPos="0.20" departSpeed="0.00" departDelay="0.00" arrival="734.00" arrivalLane="-1635_1" arrivalPos="70.06" arrivalSpeed="11.92" duration="27.00" routeLength="258.82" waitingTime="0.00" waitingCount="0" stopTime="0.00" timeLoss="4.42" rerouteNo="0" devices="tripinfo_random_1714618918110183600" vType="vehicle.ford.crown" speedFactor="0.88" vaporized=""/>
    <tripinfo id="random_1714618929898905683" depart="726.00" departLane="-1646_1" departPos="4.65" departSpeed="0.00" departDelay="0.00" arrival="736.00" arrivalLane="-1646_1" arrivalPos="118.71" arrivalSpeed="20.84" duration="10.00" routeLength="114.06" waitingTime="0.00" waitingCount="0" stopTime="0.00" timeLoss="4.70" rerouteNo="0" devices="tripinfo_random_1714618929898905683" vType="vehicle.mini.cooper_s_2021" speedFactor="0.98" vaporized=""/>
    <tripinfo id="random_1714618923690931063" depart="716.00" departLane="-1635_2" departPos="4.09" departSpeed="0.00" departDelay="0.00" arrival="740.00" arrivalLane="-1419_1" arrivalPos="86.08" arrivalSpeed="13.23" duration="24.00" routeLength="242.57" waitingTime="0.00" waitingCount="0" stopTime="0.00" timeLoss="5.11" rerouteNo="0" devices="tripinfo_random_1714618923690931063" vType="vehicle.citroen.c3" speedFactor="0.97" vaporized=""/>
    <tripinfo id="random_1714618914385522435" depart="701.00" departLane="-1631_1" departPos="5.34" departSpeed="0.00" departDelay="0.00" arrival="749.00" arrivalLane="-1461_1" arrivalPos="232.39" arrivalSpeed="13.61" duration="48.00" routeLength="535.89" waitingTime="0.00" waitingCount="0" stopTime="0.00" timeLoss="8.46" rerouteNo="0" devices="tripinfo_random_1714618914385522435" vType="vehicle.dodge.charger_police_2020" speedFactor="1.06" vaporized="traci"/>
    <tripinfo id="random_1714618914388065535" depart="701.00" departLane="-1561_1" departPos="1.09" departSpeed="0.00" departDelay="0.00" arrival="749.00" arrivalLane="-1522_2" arrivalPos="27.81" arrivalSpeed="11.96" duration="48.00" routeLength="422.06" waitingTime="0.00" waitingCount="0" stopTime="0.00" timeLoss="10.20" rerouteNo="0" devices="tripinfo_random_1714618914388065535" vType="vehicle.ford.ambulance" speedFactor="0.94" vaporized="traci"/>
    <tripinfo id="random_1714618914389707335" depart="701.00" departLane="-1549_1" departPos="8.57" departSpeed="0.00" departDelay="0.00" arrival="749.00" arrivalLane="-1666_1" arrivalPos="17.74" arrivalSpeed="0.00" duration="48.00" routeLength="322.22" waitingTime="11.00" waitingCount="1" stopTime="0.00" timeLoss="25.16" rerouteNo="0" devices="tripinfo_random_1714618914389707335" vType="vehicle.carlamotors.firetruck" speedFactor="1.08" vaporized="traci"/>
    <tripinfo id="random_1714618914390671635" depart="704.00" departLane="-1561_1" departPos="1.09" departSpeed="0.00" departDelay="3.00" arrival="749.00" arrivalLane=":35_8_0" arrivalPos="9.84" arrivalSpeed="6.92" duration="45.00" routeLength="376.05" waitingTime="0.00" waitingCount="0" stopTime="0.00" timeLoss="14.08" rerouteNo="0" devices="tripinfo_random_1714618914390671635" vType="vehicle.harley-davidson.low_rider" speedFactor="1.03" vaporized="traci"/>
    <tripinfo id="random_1714618914391583535" depart="701.00" departLane="-1602_1" departPos="8.04" departSpeed="0.00" departDelay="0.00" arrival="749.00" arrivalLane="-1602_1" arrivalPos="151.13" arrivalSpeed="0.00" duration="48.00" routeLength="143.09" waitingTime="28.00" waitingCount="1" stopTime="0.00" timeLoss="34.60" rerouteNo="0" devices="tripinfo_random_1714618914391583535" vType="vehicle.carlamotors.european_hgv" speedFactor="0.83" vaporized="traci"/>
    <tripinfo id="random_1714618914392403135" depart="702.00" departLane="-1609_2" departPos="4.54" departSpeed="0.00" departDelay="0.00" arrival="749.00" arrivalLane="-1552_2" arrivalPos="6.64" arrivalSpeed="0.00" duration="47.00" routeLength="255.89" waitingTime="21.00" waitingCount="1" stopTime="0.00" timeLoss="28.38" rerouteNo="0" devices="tripinfo_random_1714618914392403135" vType="vehicle.volkswagen.t2_2021" speedFactor="1.05" vaporized="traci"/>
    <tripinfo id="random_1714618915008794630" depart="703.00" departLane="-1410_1" departPos="1.61" departSpeed="0.00" departDelay="0.00" arrival="749.00" arrivalLane="-1567_1" arrivalPos="39.88" arrivalSpeed="5.37" duration="46.00" routeLength="223.66" waitingTime="0.00" waitingCount="0" stopTime="0.00" timeLoss="4.74" rerouteNo="0" devices="tripinfo_random_1714618915008794630" vType="vehicle.bh.crossbike" speedFactor="0.94" vaporized="traci"/>
    <tripinfo id="random_1714618915625626824" depart="703.00" departLane="-1548_1" departPos="6.20" departSpeed="0.00" departDelay="0.00" arrival="749.00" arrivalLane="-1504_1" arrivalPos="25.08" arrivalSpeed="8.45" duration="46.00" routeLength="200.61" waitingTime="13.00" waitingCount="2" stopTime="0.00" timeLoss="28.73" rerouteNo="0" devices="tripinfo_random_1714618915625626824" vType="DEFAULT_CONTAINERTYPE" speedFactor="1.00" vaporized="traci"/>
    <tripinfo id="random_1714618915627756724" depart="703.00" departLane="-1444_1" departPos="4.58" departSpeed="0.00" departDelay="0.00" arrival="749.00" arrivalLane="-1635_1" arrivalPos="6.56" arrivalSpeed="7.03" duration="46.00" routeLength="302.19" waitingTime="5.00" waitingCount="2" stopTime="0.00" timeLoss="17.26" rerouteNo="0" devices="tripinfo_random_1714618915627756724" vType="vehicle.volkswagen.t2" speedFactor="0.86" vaporized="traci"/>
    <tripinfo id="random_1714618915629373424" depart="704.00" departLane="-1465_1" departPos="5.34" departSpeed="0.00" departDelay="0.00" arrival="749.00" arrivalLane="-1461_1" arrivalPos="471.64" arrivalSpeed="14.97" duration="45.00" routeLength="558.27" waitingTime="0.00" waitingCount="0" stopTime="0.00" timeLoss="6.72" rerouteNo="0" devices="tripinfo_random_1714618915629373424" vType="vehicle.dodge.charger_police_2020" speedFactor="1.09" vaporized="traci"/>
    <tripinfo id="random_1714618916248219518" depart="705.00" departLane="-1512_1" departPos="0.20" departSpeed="0.00" departDelay="0.00" arrival="749.00" arrivalLane="-1617_1" arrivalPos="20.15" arrivalSpeed="10.69" duration="44.00" routeLength="333.96" waitingTime="0.00" waitingCount="0" stopTime="0.00" timeLoss="12.21" rerouteNo="0" devices="tripinfo_random_1714618916248219518" vType="vehicle.volkswagen.t2_2021" speedFactor="1.03" vaporized="traci"/>
    <tripinfo id="random_1714618916867388312" depart="705.00" departLane="-1439_1" departPos="0.20" departSpeed="0.00" departDelay="0.00" arrival="749.00" arrivalLane="-1589_1" arrivalPos="39.49" arrivalSpeed="0.00" duration="44.00" routeLength="63.29" waitingTime="28.00" waitingCount="1" stopTime="0.00" timeLoss="37.29" rerouteNo="0" devices="tripinfo_random_1714618916867388312" vType="vehicle.mercedes.coupe_2020" speedFactor="1.05" vaporized="traci"/>
    <tripinfo id="random_1714618916868530112" depart="706.00" departLane="-1618_1" departPos="2.45" departSpeed="0.00" departDelay="0.00" arrival="749.00" arrivalLane="-1609_2" arrivalPos="56.05" arrivalSpeed="14.66" duration="43.00" routeLength="464.31" waitingTime="0.00" waitingCount="0" stopTime="0.00" timeLoss="10.44" rerouteNo="0" devices="tripinfo_random_1714618916868530112" vType="vehicle.harley-davidson.low_rider" speedFactor="1.12" vaporized="traci"/>
    <tripinfo id="random_1714618917489051506" depart="707.00" departLane="-1541_1" departPos="0.20" departSpeed="0.00" departDelay="0.00" arrival="749.00" arrivalLane="-1589_1" arrivalPos="32.31" arrivalSpeed="0.00" duration="42.00" routeLength="84.60" waitingTime="25.00" waitingCount="1" stopTime="0.00" timeLoss="32.71" rerouteNo="0" devices="tripinfo_random_1714618917489051506" vType="vehicle.nissan.patrol_2021" speedFactor="0.99" vaporized="traci"/>
    <tripinfo id="random_1714618918109085500" depart="707.00" departLane="-1498_0" departPos="0.20" departSpeed="0.00" departDelay="0.00" arrival="749.00" arrivalLane=":63_2_1" arrivalPos="4.61" arrivalSpeed="0.00" duration="42.00" routeLength="51.76" waitingTime="31.00" waitingCount="1" stopTime="0.00" timeLoss="35.62" rerouteNo="0" devices="tripinfo_random_1714618918109085500" vType="vehicle.mitsubishi.fusorosa" speedFactor="0.93" vaporized="traci"/>
    <tripinfo id="random_1714618918111069900" depart="708.00" departLane="-1646_1" departPos="4.71" departSpeed="0.00" departDelay="0.00" arrival="749.00" arrivalLane="-1596_1" arrivalPos="85.21" arrivalSpeed="11.90" duration="41.00" routeLength="430.55" waitingTime="0.00" waitingCount="0" stopTime="0.00" timeLoss="10.97" rerouteNo="0" devices="tripinfo_random_1714618918111069900" vType="vehicle.bmw.grandtourer" speedFactor="0.94" vaporized="traci"/>
    <tripinfo id="random_1714618918728496394" depart="708.00" departLane="-1643_1" departPos="4.65" departSpeed="0.00" departDelay="0.00" arrival="749.00" arrivalLane="-1471_1" arrivalPos="31.26" arrivalSpeed="12.23" duration="41.00" routeLength="354.70" waitingTime="0.00" waitingCount="0" stopTime="0.00" timeLoss="10.77" rerouteNo="0" devices="tripinfo_random_1714618918728496394" vType="vehicle.mini.cooper_s_2021" speedFactor="0.94" vaporized="traci"/>
    <tripinfo id="random_1714618918729616294" depart="712.00" departLane="-1613_2" departPos="4.61" departSpeed="0.00" departDelay="3.00" arrival="749.00" arrivalLane="-1613_2" arrivalPos="153.44" arrivalSpeed="0.00" duration="37.00" routeLength="148.83" waitingTime="20.00" waitingCount="1" stopTime="0.00" timeLoss="26.75" rerouteNo="0" devices="tripinfo_random_1714618918729616294" vType="vehicle.toyota.prius" speedFactor="1.16" vaporized="traci"/>
    <tripinfo id="random_1714618919348529588" depart="714.00" departLane="-1613_2" departPos="2.45" departSpeed="0.00" departDelay="5.00" arrival="749.00" arrivalLane="-1613_2" arrivalPos="146.42" arrivalSpeed="0.00" duration="35.00" routeLength="143.97" waitingTime="18.00" waitingCount="1" stopTime="0.00" timeLoss="23.82" rerouteNo="0" devices="tripinfo_random_1714618919348529588" vType="vehicle.harley-davidson.low_rider" speedFactor="1.02" vaporized="traci"/>
    <tripinfo id="random_1714618919349530188" depart="709.00" departLane="-1516_1" departPos="4.89" departSpeed="0.00" departDelay="0.00" arrival="749.00" arrivalLane="-1589_1" arrivalPos="24.24" arrivalSpeed="0.00" duration="40.00" routeLength="158.22" waitingTime="16.00" waitingCount="1" stopTime="0.00" timeLoss="25.40" rerouteNo="0" devices="tripinfo_random_1714618919349530188" vType="vehicle.tesla.model3" speedFactor="1.01" vaporized="traci"/>
    <tripinfo id="random_1714618919351548588" depart="710.00" departLane="-1589_1" departPos="10.37" departSpeed="0.00" departDelay="0.00" arrival="749.00" arrivalLane=":49_4_1" arrivalPos="4.62" arrivalSpeed="0.00" duration="39.00" routeLength="41.89" waitingTime="30.00" waitingCount="1" stopTime="0.00" timeLoss="34.72" rerouteNo="0" devices="tripinfo_random_1714618919351548588" vType="vehicle.mitsubishi.fusorosa" speedFactor="0.98" vaporized="traci"/>
    <tripinfo id="random_1714618919968919083" depart="711.00" departLane="-1550_1" departPos="1.94" departSpeed="0.00" departDelay="1.00" arrival="749.00" arrivalLane="-1664_1" arrivalPos="3.07" arrivalSpeed="5.50" duration="38.00" routeLength="177.20" waitingTime="0.00" waitingCount="0" stopTime="0.00" timeLoss="5.10" rerouteNo="0" devices="tripinfo_random_1714618919968919083" vType="vehicle.gazelle.omafiets" speedFactor="0.89" vaporized="traci"/>
    <tripinfo id="random_1714618919970387282" depart="711.00" departLane="-1562_1" departPos="0.42" departSpeed="0.00" departDelay="0.00" arrival="749.00" arrivalLane="-1666_1" arrivalPos="25.27" arrivalSpeed="0.00" duration="38.00" routeLength="68.41" waitingTime="18.00" waitingCount="3" stopTime="0.00" timeLoss="28.80" rerouteNo="0" devices="tripinfo_random_1714618919970387282" vType="vehicle.mercedes.coupe" speedFactor="0.83" vaporized="traci"/>
    <tripinfo id="random_1714618920589687677" depart="711.00" departLane="-1524_1" departPos="1.92" departSpeed="0.00" departDelay="0.00" arrival="749.00" arrivalLane="-1616_1" arrivalPos="40.41" arrivalSpeed="7.00" duration="38.00" routeLength="260.12" waitingTime="0.00" waitingCount="0" stopTime="0.00" timeLoss="9.20" rerouteNo="0" devices="tripinfo_random_1714618920589687677" vType="vehicle.vespa.zx125" speedFactor="0.87" vaporized="traci"/>
    <tripinfo id="random_1714618920590885777" depart="712.00" departLane="-1567_1" departPos="4.70" departSpeed="0.00" departDelay="0.00" arrival="749.00" arrivalLane="-1665_1" arrivalPos="14.61" arrivalSpeed="0.00" duration="37.00" routeLength="205.69" waitingTime="7.00" waitingCount="1" stopTime="0.00" timeLoss="17.15" rerouteNo="0" devices="tripinfo_random_1714618920590885777" vType="vehicle.nissan.patrol" speedFactor="0.92" vaporized="traci"/>
    <tripinfo id="random_1714618921210338559" depart="712.00" departLane="-1572_1" departPos="3.81" departSpeed="0.00" departDelay="0.00" arrival="749.00" arrivalLane="-1636_1" arrivalPos="50.49" arrivalSpeed="17.21" duration="37.00" routeLength="355.79" waitingTime="0.00" waitingCount="0" stopTime="0.00" timeLoss="7.65" rerouteNo="0" devices="tripinfo_random_1714618921210338559" vType="vehicle.audi.a2" speedFactor="0.95" vaporized="traci"/>
    <tripinfo id="random_1714618921211340459" depart="713.00" departLane="-1518_1" departPos="5.07" departSpeed="0.00" departDelay="0.00" arrival="749.00" arrivalLane="-1552_2" arrivalPos="14.12" arrivalSpeed="0.00" duration="36.00" routeLength="44.76" waitingTime="26.00" waitingCount="1" stopTime="0.00" timeLoss="30.32" rerouteNo="0" devices="tripinfo_random_1714618921211340459" vType="vehicle.dodge.charger_police" speedFactor="1.00" vaporized="traci"/>
    <tripinfo id="random_1714618921829631935" depart="713.00" departLane="-1513_1" departPos="5.00" departSpeed="0.00" departDelay="0.00" arrival="749.00" arrivalLane="-1452_1" arrivalPos="55.41" arrivalSpeed="15.37" duration="36.00" routeLength="365.48" waitingTime="0.00" waitingCount="0" stopTime="0.00" timeLoss="9.41" rerouteNo="0" devices="tripinfo_random_1714618921829631935" vType="vehicle.lincoln.mkz_2017" speedFactor="1.13" vaporized="traci"/>
    <tripinfo id="random_1714618921831199435" depart="713.00" departLane="-1428_1" departPos="4.89" departSpeed="0.00" departDelay="0.00" arrival="749.00" arrivalLane="-1461_1" arrivalPos="57.10" arrivalSpeed="12.01" duration="36.00" routeLength="250.93" waitingTime="0.00" waitingCount="0" stopTime="0.00" timeLoss="13.66" rerouteNo="0" devices="tripinfo_random_1714618921831199435" vType="vehicle.tesla.model3" speedFactor="0.93" vaporized="traci"/>
    <tripinfo id="random_1714618921832892235" depart="713.00" departLane="-1555_1" departPos="5.47" departSpeed="0.00" departDelay="0.00" arrival="749.00" arrivalLane="-1613_2" arrivalPos="141.57" arrivalSpeed="0.00" duration="36.00" routeLength="235.60" waitingTime="9.00" waitingCount="1" stopTime="0.00" timeLoss="20.24" rerouteNo="0" devices="tripinfo_random_1714618921832892235" vType="vehicle.ford.crown" speedFactor="1.18" vaporized="traci"/>
    <tripinfo id="random_1714618921834860435" depart="715.00" departLane="-1563_1" departPos="2.29" departSpeed="0.00" departDelay="1.00" arrival="749.00" arrivalLane="-1666_1" arrivalPos="6.77" arrivalSpeed="0.00" duration="34.00" routeLength="38.73" waitingTime="18.00" waitingCount="2" stopTime="0.00" timeLoss="29.78" rerouteNo="0" devices="tripinfo_random_1714618921834860435" vType="vehicle.yamaha.yzf" speedFactor="1.15" vaporized="traci"/>
    <tripinfo id="random_1714618922457370411" depart="715.00" departLane="-1428_1" departPos="1.76" departSpeed="0.00" departDelay="1.00" arrival="749.00" arrivalLane="-1591_1" arrivalPos="16.94" arrivalSpeed="5.02" duration="34.00" routeLength="153.98" waitingTime="0.00" waitingCount="0" stopTime="0.00" timeLoss="4.98" rerouteNo="0" devices="tripinfo_random_1714618922457370411" vType="vehicle.diamondback.century" speedFactor="1.01" vaporized="traci"/>
    <tripinfo id="random_1714618922459303111" depart="715.00" departLane="-1522_1" departPos="4.77" departSpeed="0.00" departDelay="0.00" arrival="749.00" arrivalLane="-1637_2" arrivalPos="11.24" arrivalSpeed="11.27" duration="34.00" routeLength="412.65" waitingTime="0.00" waitingCount="0" stopTime="0.00" timeLoss="7.27" rerouteNo="0" devices="tripinfo_random_1714618922459303111" vType="vehicle.mercedes.coupe_2020" speedFactor="1.17" vaporized="traci"/>
    <tripinfo id="random_1714618923071859387" depart="715.00" departLane="-1599_1" departPos="5.13" departSpeed="0.00" departDelay="0.00" arrival="749.00" arrivalLane="-1613_2" arrivalPos="41.66" arrivalSpeed="12.80" duration="34.00" routeLength="339.29" waitingTime="0.00" waitingCount="0" stopTime="0.00" timeLoss="6.90" rerouteNo="0" devices="tripinfo_random_1714618923071859387" vType="vehicle.mercedes.coupe" speedFactor="0.99" vaporized="traci"/>
    <tripinfo id="random_1714618923073165987" depart="716.00" departLane="-1519_1" departPos="5.47" departSpeed="0.00" departDelay="0.00" arrival="749.00" arrivalLane=":111_4_0" arrivalPos="13.19" arrivalSpeed="8.50" duration="33.00" routeLength="308.73" waitingTime="3.00" waitingCount="1" stopTime="0.00" timeLoss="9.51" rerouteNo="0" devices="tripinfo_random_1714618923073165987" vType="vehicle.ford.crown" speedFactor="1.02" vaporized="traci"/>
    <tripinfo id="random_1714618923691888863" depart="716.00" departLane="-1658_1" departPos="5.67" departSpeed="0.00" departDelay="0.00" arrival="749.00" arrivalLane="-1613_1" arrivalPos="18.91" arrivalSpeed="16.09" duration="33.00" routeLength="420.93" waitingTime="0.00" waitingCount="0" stopTime="0.00" timeLoss="5.80" rerouteNo="0" devices="tripinfo_random_1714618923691888863" vType="vehicle.nissan.patrol_2021" speedFactor="1.18" vaporized="traci"/>
    <tripinfo id="random_1714618923693763363" depart="716.00" departLane="-1510_1" departPos="0.93" departSpeed="0.00" departDelay="0.00" arrival="749.00" arrivalLane="-1616_1" arrivalPos="16.28" arrivalSpeed="8.81" duration="33.00" routeLength="259.77" waitingTime="0.00" waitingCount="0" stopTime="0.00" timeLoss="10.66" rerouteNo="0" devices="tripinfo_random_1714618923693763363" vType="vehicle.seat.leon" speedFactor="1.10" vaporized="traci"/>
    <tripinfo id="random_1714618923695045063" depart="717.00" departLane="-1570_1" departPos="4.54" departSpeed="0.00" departDelay="0.00" arrival="749.00" arrivalLane="-1427_1" arrivalPos="80.56" arrivalSpeed="5.16" duration="32.00" routeLength="228.90" waitingTime="0.00" waitingCount="0" stopTime="0.00" timeLoss="10.48" rerouteNo="0" devices="tripinfo_random_1714618923695045063" vType="vehicle.volkswagen.t2_2021" speedFactor="0.90" vaporized="traci"/>
    <tripinfo id="random_1714618924310168839" depart="717.00" departLane="-1577_1" departPos="8.57" departSpeed="0.00" departDelay="0.00" arrival="749.00" arrivalLane="-1533_1" arrivalPos="52.48" arrivalSpeed="13.92" duration="32.00" routeLength="300.35" waitingTime="0.00" waitingCount="0" stopTime="0.00" timeLoss="8.85" rerouteNo="0" devices="tripinfo_random_1714618924310168839" vType="vehicle.carlamotors.firetruck" speedFactor="1.03" vaporized="traci"/>
    <tripinfo id="random_1714618924311614639" depart="717.00" departLane="-1622_2" departPos="5.00" departSpeed="0.00" departDelay="0.00" arrival="749.00" arrivalLane="-1645_1" arrivalPos="213.29" arrivalSpeed="20.94" duration="32.00" routeLength="444.52" waitingTime="0.00" waitingCount="0" stopTime="0.00" timeLoss="6.65" rerouteNo="0" devices="tripinfo_random_1714618924311614639" vType="vehicle.lincoln.mkz_2017" speedFactor="0.96" vaporized="traci"/>
    <tripinfo id="random_1714618924313282439" depart="717.00" departLane="-1516_1" departPos="4.89" departSpeed="0.00" departDelay="0.00" arrival="749.00" arrivalLane="-1589_1" arrivalPos="16.95" arrivalSpeed="0.00" duration="32.00" routeLength="150.93" waitingTime="7.00" waitingCount="2" stopTime="0.00" timeLoss="19.07" rerouteNo="0" devices="tripinfo_random_1714618924313282439" vType="vehicle.tesla.model3" speedFactor="1.09" vaporized="traci"/>
    <tripinfo id="random_1714618924314457439" depart="718.00" departLane="-1640_0" departPos="4.71" departSpeed="0.00" departDelay="0.00" arrival="749.00" arrivalLane=":73_0_1" arrivalPos="12.33" arrivalSpeed="7.84" duration="31.00" routeLength="322.58" waitingTime="0.00" waitingCount="0" stopTime="0.00" timeLoss="11.17" rerouteNo="0" devices="tripinfo_random_1714618924314457439" vType="vehicle.bmw.grandtourer" speedFactor="1.04" vaporized="traci"/>
    <tripinfo id="random_1714618924930809315" depart="718.00" departLane="-1465_1" departPos="5.67" departSpeed="0.00" departDelay="0.00" arrival="749.00" arrivalLane="-1427_1" arrivalPos="287.88" arrivalSpeed="10.65" duration="31.00" routeLength="358.57" waitingTime="0.00" waitingCount="0" stopTime="0.00" timeLoss="5.26" rerouteNo="0" devices="tripinfo_random_1714618924930809315" vType="vehicle.nissan.patrol_2021" speedFactor="1.04" vaporized="traci"/>
    <tripinfo id="random_1714618924933120615" depart="718.00" departLane="-1549_1" departPos="2.14" departSpeed="0.00" departDelay="0.00" arrival="749.00" arrivalLane=":77_2_0" arrivalPos="1.14" arrivalSpeed="6.48" duration="31.00" routeLength="252.73" waitingTime="0.00" waitingCount="0" stopTime="0.00" timeLoss="12.94" rerouteNo="0" devices="tripinfo_random_1714618924933120615" vType="vehicle.kawasaki.ninja" speedFactor="1.09" vaporized="traci"/>
    <tripinfo id="random_1714618924934534215" depart="719.00" departLane="-1518_1" departPos="4.71" departSpeed="0.00" departDelay="0.00" arrival="749.00" arrivalLane=":10_6_0" arrivalPos="4.28" arrivalSpeed="0.00" duration="30.00" routeLength="30.71" waitingTime="19.00" waitingCount="1" stopTime="0.00" timeLoss="25.31" rerouteNo="0" devices="tripinfo_random_1714618924934534215" vType="vehicle.bmw.grandtourer" speedFactor="1.00" vaporized="traci"/>
    <tripinfo id="random_1714618925551102291" depart="719.00" departLane="-1427_1" departPos="2.14" departSpeed="0.00" departDelay="0.00" arrival="749.00" arrivalLane="-1427_1" arrivalPos="314.46" arrivalSpeed="11.80" duration="30.00" routeLength="312.32" waitingTime="0.00" waitingCount="0" stopTime="0.00" timeLoss="4.03" rerouteNo="0" devices="tripinfo_random_1714618925551102291" vType="vehicle.kawasaki.ninja" speedFactor="0.90" vaporized="traci"/>
    <tripinfo id="random_1714618925552586791" depart="719.00" departLane="-1513_1" departPos="6.37" departSpeed="0.00" departDelay="0.00" arrival="749.00" arrivalLane=":93_2_0" arrivalPos="4.16" arrivalSpeed="4.53" duration="30.00" routeLength="137.63" waitingTime="2.00" waitingCount="1" stopTime="0.00" timeLoss="14.79" rerouteNo="0" devices="tripinfo_random_1714618925552586791" vType="vehicle.tesla.cybertruck" speedFactor="0.88" vaporized="traci"/>
    <tripinfo id="random_1714618925553534391" depart="720.00" departLane="-1498_0" departPos="0.20" departSpeed="0.00" departDelay="0.00" arrival="749.00" arrivalLane=":86_0_0" arrivalPos="2.09" arrivalSpeed="0.00" duration="29.00" routeLength="38.99" waitingTime="17.00" waitingCount="1" stopTime="0.00" timeLoss="22.97" rerouteNo="0" devices="tripinfo_random_1714618925553534391" vType="vehicle.dodge.charger_2020" speedFactor="0.85" vaporized="traci"/>
    <tripinfo id="random_1714618926171802367" depart="720.00" departLane="-1531_1" departPos="1.94" departSpeed="0.00" departDelay="0.00" arrival="749.00" arrivalLane="-1596_1" arrivalPos="28.34" arrivalSpeed="5.52" duration="29.00" routeLength="133.84" waitingTime="0.00" waitingCount="0" stopTime="0.00" timeLoss="3.91" rerouteNo="0" devices="tripinfo_random_1714618926171802367" vType="vehicle.gazelle.omafiets" speedFactor="0.85" vaporized="traci"/>
    <tripinfo id="random_1714618926173973466" depart="724.00" departLane="-1600_1" departPos="3.73" departSpeed="0.00" departDelay="4.00" arrival="749.00" arrivalLane=":58_8_0" arrivalPos="3.92" arrivalSpeed="4.58" duration="25.00" routeLength="177.91" waitingTime="0.00" waitingCount="0" stopTime="0.00" timeLoss="12.12" rerouteNo="0" devices="tripinfo_random_1714618926173973466" vType="vehicle.nissan.micra" speedFactor="1.17" vaporized="traci"/>
    <tripinfo id="random_1714618926175081266" depart="721.00" departLane="-1554_1" departPos="10.37" departSpeed="0.00" departDelay="0.00" arrival="749.00" arrivalLane=":31_0_1" arrivalPos="9.73" arrivalSpeed="0.00" duration="28.00" routeLength="151.84" waitingTime="9.00" waitingCount="1" stopTime="0.00" timeLoss="15.06" rerouteNo="0" devices="tripinfo_random_1714618926175081266" vType="vehicle.mitsubishi.fusorosa" speedFactor="1.02" vaporized="traci"/>
    <tripinfo id="random_1714618926793161942" depart="721.00" departLane="-1497_1" departPos="1.67" departSpeed="0.00" departDelay="0.00" arrival="749.00" arrivalLane=":84_1_0" arrivalPos="7.61" arrivalSpeed="0.00" duration="28.00" routeLength="25.25" waitingTime="18.00" waitingCount="2" stopTime="0.00" timeLoss="24.39" rerouteNo="0" devices="tripinfo_random_1714618926793161942" vType="vehicle.nissan.patrol" speedFactor="1.10" vaporized="traci"/>
    <tripinfo id="random_1714618926795215242" depart="724.00" departLane="-1521_1" departPos="0.20" departSpeed="0.00" departDelay="2.00" arrival="749.00" arrivalLane="-1513_1" arrivalPos="41.26" arrivalSpeed="7.94" duration="25.00" routeLength="146.66" waitingTime="4.00" waitingCount="1" stopTime="0.00" timeLoss="11.47" rerouteNo="0" devices="tripinfo_random_1714618926795215242" vType="vehicle.mercedes.coupe" speedFactor="1.00" vaporized="traci"/>
    <tripinfo id="random_1714618927417744618" depart="722.00" departLane="-1574_1" departPos="5.30" departSpeed="0.00" departDelay="0.00" arrival="749.00" arrivalLane=":67_9_0" arrivalPos="1.59" arrivalSpeed="7.67" duration="27.00" routeLength="247.34" waitingTime="0.00" waitingCount="0" stopTime="0.00" timeLoss="7.79" rerouteNo="0" devices="tripinfo_random_1714618927417744618" vType="vehicle.carlamotors.carlacola" speedFactor="1.00" vaporized="traci"/>
    <tripinfo id="random_1714618927424707818" depart="722.00" departLane="-1615_1" departPos="4.29" departSpeed="0.00" departDelay="0.00" arrival="749.00" arrivalLane=":125_3_0" arrivalPos="0.52" arrivalSpeed="6.10" duration="27.00" routeLength="151.62" waitingTime="0.00" waitingCount="0" stopTime="0.00" timeLoss="8.74" rerouteNo="0" devices="tripinfo_random_1714618927424707818" vType="vehicle.seat.leon" speedFactor="0.90" vaporized="traci"/>
    <tripinfo id="random_1714618927427588318" depart="723.00" departLane="-1410_1" departPos="1.94" departSpeed="0.00" departDelay="0.00" arrival="749.00" arrivalLane="-1545_1" arrivalPos="19.15" arrivalSpeed="5.14" duration="26.00" routeLength="119.96" waitingTime="0.00" waitingCount="0" stopTime="0.00" timeLoss="3.41" rerouteNo="0" devices="tripinfo_random_1714618927427588318" vType="vehicle.gazelle.omafiets" speedFactor="1.14" vaporized="traci"/>
    <tripinfo id="random_1714618928032826594" depart="723.00" departLane="-1571_1" departPos="4.70" departSpeed="0.00" departDelay="0.00" arrival="749.00" arrivalLane="-1581_1" arrivalPos="84.31" arrivalSpeed="14.19" duration="26.00" routeLength="230.98" waitingTime="0.00" waitingCount="0" stopTime="0.00" timeLoss="5.24" rerouteNo="0" devices="tripinfo_random_1714618928032826594" vType="vehicle.nissan.patrol" speedFactor="1.02" vaporized="traci"/>