<?xml version="1.0" encoding="UTF-8"?>

<!-- generated on 2024-05-08 13:26:22 by Eclipse SUMO GUI Version 1.19.0
<configuration xmlns:xsi="http://www.w3.org/2001/XMLSchema-instance" xsi:noNamespaceSchemaLocation="http://sumo.dlr.de/xsd/sumoConfiguration.xsd">

    <input>
        <net-file value="../Adapters/co_simulation/sumo_configuration/simple-map/UA.net.xml"/>
        <route-files value="../Adapters/co_simulation/sumo_configuration/simple-map/carlavtypes.rou.xml,../Adapters/co_simulation/sumo_configuration/simple-map/simple-map.rou.xml"/>
    </input>

    <output>
        <tripinfo-output value="tripinfo.xml"/>
    </output>

    <traci_server>
        <remote-port value="37615"/>
        <num-clients value="1"/>
    </traci_server>

    <gui_only>
        <gui-settings-file value="../Adapters/co_simulation/sumo_configuration/simple-map/simple-map.view.xml"/>
    </gui_only>

</configuration>
-->

<tripinfos xmlns:xsi="http://www.w3.org/2001/XMLSchema-instance" xsi:noNamespaceSchemaLocation="http://sumo.dlr.de/xsd/tripinfo_file.xsd">
    <tripinfo id="0" depart="3.00" departLane="-1466_1" departPos="5.34" departSpeed="0.00" departDelay="0.00" arrival="12.00" arrivalLane="-1465_1" arrivalPos="11.38" arrivalSpeed="13.75" duration="9.00" routeLength="73.18" waitingTime="0.00" waitingCount="0" stopTime="0.00" timeLoss="3.49" rerouteNo="0" devices="tripinfo_0" vType="vehicle.dodge.charger_police_2020" speedFactor="1.06" vaporized=""/>
    <tripinfo id="randomMotorcycle_1715171189492808196" depart="11.00" departLane="-1621_1" departPos="2.14" departSpeed="0.00" departDelay="0.00" arrival="23.00" arrivalLane="-1518_1" arrivalPos="20.07" arrivalSpeed="13.75" duration="12.00" routeLength="107.78" waitingTime="0.00" waitingCount="0" stopTime="0.00" timeLoss="4.78" rerouteNo="0" devices="tripinfo_randomMotorcycle_1715171189492808196" vType="vehicle.kawasaki.ninja" speedFactor="1.10" vaporized=""/>
    <tripinfo id="randomMotorcycle_1715171189488336629" depart="11.00" departLane="-1495_1" departPos="2.14" departSpeed="0.00" departDelay="0.00" arrival="26.00" arrivalLane="-1415_0" arrivalPos="87.23" arrivalSpeed="15.03" duration="15.00" routeLength="127.53" waitingTime="0.00" waitingCount="0" stopTime="0.00" timeLoss="5.98" rerouteNo="0" devices="tripinfo_randomMotorcycle_1715171189488336629" vType="vehicle.kawasaki.ninja" speedFactor="0.84" vaporized=""/>
    <tripinfo id="randomMotorcycle_1715171194465403667" depart="19.00" departLane="-1485_1" departPos="0.20" departSpeed="0.00" departDelay="0.00" arrival="27.00" arrivalLane="-1657_1" arrivalPos="0.48" arrivalSpeed="12.03" duration="8.00" routeLength="51.57" waitingTime="0.00" waitingCount="0" stopTime="0.00" timeLoss="3.77" rerouteNo="0" devices="tripinfo_randomMotorcycle_1715171194465403667" vType="vehicle.kawasaki.ninja" speedFactor="1.09" vaporized=""/>
    <tripinfo id="randomMotorcycle_1715171189490102089" depart="11.00" departLane="-1524_1" departPos="2.14" departSpeed="0.00" departDelay="0.00" arrival="28.00" arrivalLane="-1584_1" arrivalPos="5.82" arrivalSpeed="13.10" duration="17.00" routeLength="108.20" waitingTime="0.00" waitingCount="0" stopTime="0.00" timeLoss="5.79" rerouteNo="0" devices="tripinfo_randomMotorcycle_1715171189490102089" vType="vehicle.kawasaki.ninja" speedFactor="1.01" vaporized=""/>
    <tripinfo id="randomMotorcycle_1715171193848094631" depart="18.00" departLane="-1485_1" departPos="0.20" departSpeed="0.00" departDelay="0.00" arrival="28.00" arrivalLane="-1658_2" arrivalPos="11.96" arrivalSpeed="14.95" duration="10.00" routeLength="76.95" waitingTime="0.00" waitingCount="0" stopTime="0.00" timeLoss="3.31" rerouteNo="0" devices="tripinfo_randomMotorcycle_1715171193848094631" vType="vehicle.kawasaki.ninja" speedFactor="1.08" vaporized=""/>
    <tripinfo id="randomMotorcycle_1715171196350591355" depart="22.00" departLane="-1651_1" departPos="2.14" departSpeed="0.00" departDelay="0.00" arrival="37.00" arrivalLane="-1651_1" arrivalPos="174.89" arrivalSpeed="11.48" duration="15.00" routeLength="172.75" waitingTime="0.00" waitingCount="0" stopTime="0.00" timeLoss="2.64" rerouteNo="0" devices="tripinfo_randomMotorcycle_1715171196350591355" vType="vehicle.kawasaki.ninja" speedFactor="1.01" vaporized=""/>
    <tripinfo id="randomMotorcycle_1715171194474953930" depart="19.00" departLane="-1544_1" departPos="2.14" departSpeed="0.00" departDelay="0.00" arrival="43.00" arrivalLane="-1505_1" arrivalPos="0.20" arrivalSpeed="3.64" duration="24.00" routeLength="151.75" waitingTime="2.00" waitingCount="1" stopTime="0.00" timeLoss="9.84" rerouteNo="0" devices="tripinfo_randomMotorcycle_1715171194474953930" vType="vehicle.kawasaki.ninja" speedFactor="0.93" vaporized=""/>
    <tripinfo id="randomMotorcycle_1715171191362048798" depart="14.00" departLane="-1435_1" departPos="2.14" departSpeed="0.00" departDelay="0.00" arrival="60.00" arrivalLane="-1537_1" arrivalPos="45.63" arrivalSpeed="12.98" duration="46.00" routeLength="339.45" waitingTime="0.00" waitingCount="0" stopTime="0.00" timeLoss="14.27" rerouteNo="0" devices="tripinfo_randomMotorcycle_1715171191362048798" vType="vehicle.kawasaki.ninja" speedFactor="0.97" vaporized=""/>
    <tripinfo id="randomMotorcycle_1715171191980897043" depart="15.00" departLane="-1588_1" departPos="0.20" departSpeed="0.00" departDelay="0.00" arrival="65.00" arrivalLane="-1391_1" arrivalPos="183.09" arrivalSpeed="10.51" duration="50.00" routeLength="446.17" waitingTime="3.00" waitingCount="1" stopTime="0.00" timeLoss="11.99" rerouteNo="0" devices="tripinfo_randomMotorcycle_1715171191980897043" vType="vehicle.kawasaki.ninja" speedFactor="0.91" vaporized=""/>
    <tripinfo id="randomMotorcycle_1715171189489306037" depart="11.00" departLane="-1602_1" departPos="2.14" departSpeed="0.00" departDelay="0.00" arrival="66.00" arrivalLane="-1522_2" arrivalPos="192.03" arrivalSpeed="14.08" duration="55.00" routeLength="624.75" waitingTime="0.00" waitingCount="0" stopTime="0.00" timeLoss="12.01" rerouteNo="0" devices="tripinfo_randomMotorcycle_1715171189489306037" vType="vehicle.kawasaki.ninja" speedFactor="1.08" vaporized=""/>
    <tripinfo id="randomMotorcycle_1715171194469699422" depart="19.00" departLane="-1551_1" departPos="2.14" departSpeed="0.00" departDelay="0.00" arrival="66.00" arrivalLane="-1409_1" arrivalPos="59.28" arrivalSpeed="11.97" duration="47.00" routeLength="474.69" waitingTime="2.00" waitingCount="1" stopTime="0.00" timeLoss="12.87" rerouteNo="0" devices="tripinfo_randomMotorcycle_1715171194469699422" vType="vehicle.kawasaki.ninja" speedFactor="0.95" vaporized=""/>
    <tripinfo id="randomMotorcycle_1715171190103357775" depart="14.00" departLane="-1610_2" departPos="2.14" departSpeed="0.00" departDelay="1.00" arrival="67.00" arrivalLane="-1618_1" arrivalPos="128.84" arrivalSpeed="9.94" duration="53.00" routeLength="531.57" waitingTime="0.00" waitingCount="0" stopTime="0.00" timeLoss="8.59" rerouteNo="0" devices="tripinfo_randomMotorcycle_1715171190103357775" vType="vehicle.kawasaki.ninja" speedFactor="0.89" vaporized=""/>
    <tripinfo id="randomMotorcycle_1715171192598740147" depart="16.00" departLane="-1415_0" departPos="2.14" departSpeed="0.00" departDelay="0.00" arrival="67.00" arrivalLane="-1544_1" arrivalPos="21.03" arrivalSpeed="13.48" duration="51.00" routeLength="519.24" waitingTime="0.00" waitingCount="0" stopTime="0.00" timeLoss="17.56" rerouteNo="0" devices="tripinfo_randomMotorcycle_1715171192598740147" vType="vehicle.kawasaki.ninja" speedFactor="1.09" vaporized=""/>
    <tripinfo id="randomMotorcycle_1715171189492117682" depart="11.00" departLane="-1512_1" departPos="0.20" departSpeed="0.00" departDelay="0.00" arrival="76.00" arrivalLane="-1600_1" arrivalPos="31.26" arrivalSpeed="10.90" duration="65.00" routeLength="665.92" waitingTime="0.00" waitingCount="0" stopTime="0.00" timeLoss="10.02" rerouteNo="0" devices="tripinfo_randomMotorcycle_1715171189492117682" vType="vehicle.kawasaki.ninja" speedFactor="0.95" vaporized=""/>
    <personinfo id="randomPedestrian_1715171230655811319" depart="77.00" type="DEFAULT_PEDTYPE" speedFactor="1.04"/>
    <tripinfo id="randomMotorcycle_1715171189488989648" depart="11.00" departLane="-1532_1" departPos="2.14" departSpeed="0.00" departDelay="0.00" arrival="79.00" arrivalLane="-1648_1" arrivalPos="0.25" arrivalSpeed="9.56" duration="68.00" routeLength="784.26" waitingTime="4.00" waitingCount="1" stopTime="0.00" timeLoss="19.25" rerouteNo="0" devices="tripinfo_randomMotorcycle_1715171189488989648" vType="vehicle.kawasaki.ninja" speedFactor="1.00" vaporized=""/>
    <tripinfo id="randomMotorcycle_1715171193846441390" depart="18.00" departLane="-1529_1" departPos="2.14" departSpeed="0.00" departDelay="0.00" arrival="79.00" arrivalLane="-1569_1" arrivalPos="153.10" arrivalSpeed="12.84" duration="61.00" routeLength="482.25" waitingTime="0.00" waitingCount="0" stopTime="0.00" timeLoss="18.40" rerouteNo="0" devices="tripinfo_randomMotorcycle_1715171193846441390" vType="vehicle.kawasaki.ninja" speedFactor="1.02" vaporized=""/>
    <tripinfo id="randomMotorcycle_1715171192600002694" depart="16.00" departLane="-1464_1" departPos="2.14" departSpeed="0.00" departDelay="0.00" arrival="89.00" arrivalLane="-1652_1" arrivalPos="0.20" arrivalSpeed="12.55" duration="73.00" routeLength="804.80" waitingTime="0.00" waitingCount="0" stopTime="0.00" timeLoss="14.08" rerouteNo="0" devices="tripinfo_randomMotorcycle_1715171192600002694" vType="vehicle.kawasaki.ninja" speedFactor="1.00" vaporized=""/>
    <tripinfo id="randomMotorcycle_1715171191996151042" depart="16.00" departLane="-1527_1" departPos="2.14" departSpeed="0.00" departDelay="0.00" arrival="90.00" arrivalLane="-1510_2" arrivalPos="0.93" arrivalSpeed="6.91" duration="74.00" routeLength="633.34" waitingTime="0.00" waitingCount="0" stopTime="0.00" timeLoss="19.53" rerouteNo="0" devices="tripinfo_randomMotorcycle_1715171191996151042" vType="vehicle.kawasaki.ninja" speedFactor="1.04" vaporized=""/>
    <tripinfo id="randomMotorcycle_1715171195088892547" depart="27.00" departLane="-1647_1" departPos="0.20" departSpeed="0.00" departDelay="7.00" arrival="91.00" arrivalLane="-1614_2" arrivalPos="110.20" arrivalSpeed="5.69" duration="64.00" routeLength="767.79" waitingTime="0.00" waitingCount="0" stopTime="0.00" timeLoss="16.14" rerouteNo="0" devices="tripinfo_randomMotorcycle_1715171195088892547" vType="vehicle.kawasaki.ninja" speedFactor="1.00" vaporized=""/>
    <tripinfo id="randomMotorcycle_1715171193847225330" depart="18.00" departLane="-1615_1" departPos="2.14" departSpeed="0.00" departDelay="0.00" arrival="95.00" arrivalLane="-1600_1" arrivalPos="31.26" arrivalSpeed="12.39" duration="77.00" routeLength="744.51" waitingTime="0.00" waitingCount="0" stopTime="0.00" timeLoss="16.09" rerouteNo="0" devices="tripinfo_randomMotorcycle_1715171193847225330" vType="vehicle.kawasaki.ninja" speedFactor="0.97" vaporized=""/>
    <tripinfo id="randomMotorcycle_1715171196351402214" depart="22.00" departLane="-1645_1" departPos="2.14" departSpeed="0.00" departDelay="0.00" arrival="96.00" arrivalLane="-1529_2" arrivalPos="78.96" arrivalSpeed="11.08" duration="74.00" routeLength="1101.58" waitingTime="0.00" waitingCount="0" stopTime="0.00" timeLoss="11.77" rerouteNo="0" devices="tripinfo_randomMotorcycle_1715171196351402214" vType="vehicle.kawasaki.ninja" speedFactor="0.91" vaporized=""/>
    <tripinfo id="randomMotorcycle_1715171195093430601" depart="20.00" departLane="-1623_1" departPos="2.14" departSpeed="0.00" departDelay="0.00" arrival="100.00" arrivalLane="-1552_1" arrivalPos="15.12" arrivalSpeed="11.34" duration="80.00" routeLength="800.77" waitingTime="15.00" waitingCount="1" stopTime="0.00" timeLoss="28.98" rerouteNo="0" devices="tripinfo_randomMotorcycle_1715171195093430601" vType="vehicle.kawasaki.ninja" speedFactor="1.15" vaporized=""/>
</tripinfos>
