<?xml version="1.0" encoding="UTF-8"?>

<!-- generated on 2024-05-10 17:14:26 by Eclipse SUMO GUI Version 1.12.0
<configuration xmlns:xsi="http://www.w3.org/2001/XMLSchema-instance" xsi:noNamespaceSchemaLocation="http://sumo.dlr.de/xsd/sumoConfiguration.xsd">

    <input>
        <net-file value="../Adapters/co_simulation/sumo_configuration/simple-map/UA.net.xml"/>
        <route-files value="../Adapters/co_simulation/sumo_configuration/simple-map/carlavtypes.rou.xml,../Adapters/co_simulation/sumo_configuration/simple-map/simple-map.rou.xml"/>
    </input>

    <output>
        <tripinfo-output value="tripinfo.xml"/>
    </output>

    <traci_server>
        <remote-port value="59659"/>
        <num-clients value="1"/>
    </traci_server>

    <gui_only>
        <gui-settings-file value="../Adapters/co_simulation/sumo_configuration/simple-map/simple-map.view.xml"/>
    </gui_only>

</configuration>
-->

<tripinfos xmlns:xsi="http://www.w3.org/2001/XMLSchema-instance" xsi:noNamespaceSchemaLocation="http://sumo.dlr.de/xsd/tripinfo_file.xsd">
    <tripinfo id="0" depart="3.00" departLane="-1466_1" departPos="5.34" departSpeed="0.00" departDelay="0.00" arrival="12.00" arrivalLane="-1465_1" arrivalPos="11.38" arrivalSpeed="13.75" duration="9.00" routeLength="73.18" waitingTime="0.00" waitingCount="0" stopTime="0.00" timeLoss="3.49" rerouteNo="0" devices="tripinfo_0" vType="vehicle.dodge.charger_police_2020" speedFactor="1.06" vaporized=""/>
    <tripinfo id="randomCar_1715357677298431350" depart="19.00" departLane="-1603_1" departPos="0.20" departSpeed="0.00" departDelay="2.00" arrival="29.00" arrivalLane="-1542_1" arrivalPos="1.20" arrivalSpeed="9.38" duration="10.00" routeLength="56.64" waitingTime="0.00" waitingCount="0" stopTime="0.00" timeLoss="3.99" rerouteNo="0" devices="tripinfo_randomCar_1715357677298431350" vType="vehicle.dodge.charger_police_2020" speedFactor="0.83" vaporized=""/>
    <tripinfo id="randomCar_1715357679162181864" depart="20.00" departLane="-1625_1" departPos="5.34" departSpeed="0.00" departDelay="0.00" arrival="31.00" arrivalLane="-1501_0" arrivalPos="0.20" arrivalSpeed="8.86" duration="11.00" routeLength="61.08" waitingTime="0.00" waitingCount="0" stopTime="0.00" timeLoss="6.34" rerouteNo="0" devices="tripinfo_randomCar_1715357679162181864" vType="vehicle.dodge.charger_police_2020" speedFactor="1.08" vaporized=""/>
    <tripinfo id="randomCar_1715357675438177055" depart="14.00" departLane="-1640_0" departPos="5.34" departSpeed="0.00" departDelay="0.00" arrival="33.00" arrivalLane="-1527_1" arrivalPos="110.01" arrivalSpeed="13.87" duration="19.00" routeLength="217.51" waitingTime="0.00" waitingCount="0" stopTime="0.00" timeLoss="5.98" rerouteNo="0" devices="tripinfo_randomCar_1715357675438177055" vType="vehicle.dodge.charger_police_2020" speedFactor="1.01" vaporized=""/>
    <personinfo id="randomPedestrian_1715357690952960339" depart="39.00" type="DEFAULT_PEDTYPE"/>
    <personinfo id="randomPedestrian_1715357691565491516" depart="41.00" type="DEFAULT_PEDTYPE"/>
    <tripinfo id="randomCar_1715357674198344393" depart="12.00" departLane="-1488_0" departPos="0.20" departSpeed="0.00" departDelay="0.00" arrival="42.00" arrivalLane="-1562_1" arrivalPos="0.42" arrivalSpeed="6.07" duration="30.00" routeLength="275.93" waitingTime="0.00" waitingCount="0" stopTime="0.00" timeLoss="6.00" rerouteNo="0" devices="tripinfo_randomCar_1715357674198344393" vType="vehicle.dodge.charger_police_2020" speedFactor="0.86" vaporized=""/>
    <personinfo id="randomPedestrian_1715357692803920302" depart="42.00" type="DEFAULT_PEDTYPE"/>
    <tripinfo id="randomCar_1715357679783009601" depart="22.00" departLane="-1633_1" departPos="5.34" departSpeed="0.00" departDelay="0.00" arrival="44.00" arrivalLane="-1465_1" arrivalPos="11.38" arrivalSpeed="13.19" duration="22.00" routeLength="154.63" waitingTime="0.00" waitingCount="0" stopTime="0.00" timeLoss="9.13" rerouteNo="0" devices="tripinfo_randomCar_1715357679783009601" vType="vehicle.dodge.charger_police_2020" speedFactor="1.02" vaporized=""/>
    <tripinfo id="randomBike_1715357687842666506" depart="34.00" departLane="-1488_0" departPos="0.20" departSpeed="0.00" departDelay="0.00" arrival="47.00" arrivalLane="-1456_1" arrivalPos="34.14" arrivalSpeed="5.25" duration="13.00" routeLength="52.90" waitingTime="0.00" waitingCount="0" stopTime="0.00" timeLoss="3.11" rerouteNo="0" devices="tripinfo_randomBike_1715357687842666506" vType="vehicle.gazelle.omafiets" speedFactor="1.00" vaporized=""/>
    <personinfo id="randomPedestrian_1715357697146029646" depart="49.00" type="DEFAULT_PEDTYPE"/>
    <tripinfo id="randomCar_1715357674200733364" depart="12.00" departLane="-1404_1" departPos="5.34" departSpeed="0.00" departDelay="0.00" arrival="51.00" arrivalLane="-1467_1" arrivalPos="104.54" arrivalSpeed="5.45" duration="39.00" routeLength="310.78" waitingTime="3.00" waitingCount="1" stopTime="0.00" timeLoss="18.52" rerouteNo="0" devices="tripinfo_randomCar_1715357674200733364" vType="vehicle.dodge.charger_police_2020" speedFactor="1.03" vaporized=""/>
    <personinfo id="randomPedestrian_1715357699004665383" depart="52.00" type="DEFAULT_PEDTYPE"/>
    <personinfo id="randomPedestrian_1715357700244763767" depart="54.00" type="DEFAULT_PEDTYPE"/>
    <personinfo id="randomPedestrian_1715357701484972731" depart="56.00" type="DEFAULT_PEDTYPE"/>
    <tripinfo id="randomBike_1715357694664470331" depart="46.00" departLane="-1637_1" departPos="1.94" departSpeed="0.00" departDelay="0.00" arrival="59.00" arrivalLane="-1637_1" arrivalPos="51.66" arrivalSpeed="5.23" duration="13.00" routeLength="49.72" waitingTime="0.00" waitingCount="0" stopTime="0.00" timeLoss="3.15" rerouteNo="0" devices="tripinfo_randomBike_1715357694664470331" vType="vehicle.gazelle.omafiets" speedFactor="0.88" vaporized=""/>
    <personinfo id="randomPedestrian_1715357703964464732" depart="60.00" type="DEFAULT_PEDTYPE"/>
    <tripinfo id="randomMotorcycle_1715357684119688294" depart="28.00" departLane="-1591_1" departPos="2.14" departSpeed="0.00" departDelay="0.00" arrival="62.00" arrivalLane="-1465_1" arrivalPos="11.38" arrivalSpeed="11.12" duration="34.00" routeLength="289.53" waitingTime="0.00" waitingCount="0" stopTime="0.00" timeLoss="9.62" rerouteNo="0" devices="tripinfo_randomMotorcycle_1715357684119688294" vType="vehicle.kawasaki.ninja" speedFactor="0.95" vaporized=""/>
    <personinfo id="randomPedestrian_1715357706444976588" depart="64.00" type="DEFAULT_PEDTYPE"/>
    <tripinfo id="randomMotorcycle_1715357679780225789" depart="22.00" departLane="-1637_2" departPos="2.14" departSpeed="0.00" departDelay="1.00" arrival="66.00" arrivalLane="-1445_1" arrivalPos="31.10" arrivalSpeed="3.30" duration="44.00" routeLength="334.47" waitingTime="0.00" waitingCount="0" stopTime="0.00" timeLoss="16.61" rerouteNo="0" devices="tripinfo_randomMotorcycle_1715357679780225789" vType="vehicle.kawasaki.ninja" speedFactor="0.96" vaporized=""/>
    <tripinfo id="randomMotorcycle_1715357695906178370" depart="48.00" departLane="-1550_1" departPos="2.14" departSpeed="0.00" departDelay="0.00" arrival="67.00" arrivalLane="-1664_2" arrivalPos="10.22" arrivalSpeed="12.55" duration="19.00" routeLength="184.15" waitingTime="0.00" waitingCount="0" stopTime="0.00" timeLoss="4.37" rerouteNo="0" devices="tripinfo_randomMotorcycle_1715357695906178370" vType="vehicle.kawasaki.ninja" speedFactor="0.99" vaporized=""/>
    <tripinfo id="randomMotorcycle_1715357685983607363" depart="32.00" departLane="-1486_1" departPos="2.14" departSpeed="0.00" departDelay="0.00" arrival="76.00" arrivalLane="-1628_1" arrivalPos="30.67" arrivalSpeed="15.10" duration="44.00" routeLength="498.64" waitingTime="0.00" waitingCount="0" stopTime="0.00" timeLoss="9.59" rerouteNo="0" devices="tripinfo_randomMotorcycle_1715357685983607363" vType="vehicle.kawasaki.ninja" speedFactor="1.15" vaporized=""/>
    <personinfo id="randomPedestrian_1715357700242239432" depart="54.00" type="DEFAULT_PEDTYPE">
        <walk depart="54.00" departPos="0.00" arrival="82.00" arrivalPos="0.00" duration="28.00" routeLength="43.64" timeLoss="-3.42" maxSpeed="1.39"/>
    </personinfo>
    <tripinfo id="randomCar_1715357674819835950" depart="13.00" departLane="-1473_1" departPos="5.34" departSpeed="0.00" departDelay="0.00" arrival="83.00" arrivalLane="-1641_1" arrivalPos="2.23" arrivalSpeed="13.49" duration="70.00" routeLength="696.57" waitingTime="7.00" waitingCount="1" stopTime="0.00" timeLoss="21.81" rerouteNo="0" devices="tripinfo_randomCar_1715357674819835950" vType="vehicle.dodge.charger_police_2020" speedFactor="0.95" vaporized=""/>
    <tripinfo id="randomBike_1715357698381689746" depart="51.00" departLane="-1492_1" departPos="1.94" departSpeed="0.00" departDelay="0.00" arrival="83.00" arrivalLane="-1626_1" arrivalPos="35.17" arrivalSpeed="5.14" duration="32.00" routeLength="108.22" waitingTime="3.00" waitingCount="1" stopTime="0.00" timeLoss="11.64" rerouteNo="0" devices="tripinfo_randomBike_1715357698381689746" vType="vehicle.gazelle.omafiets" speedFactor="1.14" vaporized=""/>
    <tripinfo id="randomMotorcycle_1715357688464666807" depart="36.00" departLane="-1541_1" departPos="0.20" departSpeed="0.00" departDelay="0.00" arrival="93.00" arrivalLane="-1606_1" arrivalPos="33.74" arrivalSpeed="9.64" duration="57.00" routeLength="292.02" waitingTime="12.00" waitingCount="3" stopTime="0.00" timeLoss="36.64" rerouteNo="0" devices="tripinfo_randomMotorcycle_1715357688464666807" vType="vehicle.kawasaki.ninja" speedFactor="0.99" vaporized=""/>
    <tripinfo id="randomMotorcycle_1715357679160963995" depart="22.00" departLane="-1505_1" departPos="0.20" departSpeed="0.00" departDelay="2.00" arrival="95.00" arrivalLane="-1476_1" arrivalPos="253.15" arrivalSpeed="15.61" duration="73.00" routeLength="917.34" waitingTime="0.00" waitingCount="0" stopTime="0.00" timeLoss="13.08" rerouteNo="0" devices="tripinfo_randomMotorcycle_1715357679160963995" vType="vehicle.kawasaki.ninja" speedFactor="1.14" vaporized=""/>
    <tripinfo id="randomMotorcycle_1715357688459260149" depart="35.00" departLane="-1472_1" departPos="2.14" departSpeed="0.00" departDelay="0.00" arrival="95.00" arrivalLane="-1540_1" arrivalPos="66.16" arrivalSpeed="13.54" duration="60.00" routeLength="820.63" waitingTime="0.00" waitingCount="0" stopTime="0.00" timeLoss="13.01" rerouteNo="0" devices="tripinfo_randomMotorcycle_1715357688459260149" vType="vehicle.kawasaki.ninja" speedFactor="0.99" vaporized=""/>
    <tripinfo id="randomCar_1715357674821865505" depart="14.00" departLane="-1609_2" departPos="5.34" departSpeed="0.00" departDelay="0.00" arrival="98.00" arrivalLane="-1445_1" arrivalPos="31.10" arrivalSpeed="13.14" duration="84.00" routeLength="771.65" waitingTime="0.00" waitingCount="0" stopTime="0.00" timeLoss="24.54" rerouteNo="0" devices="tripinfo_randomCar_1715357674821865505" vType="vehicle.dodge.charger_police_2020" speedFactor="1.02" vaporized=""/>
    <tripinfo id="randomCar_1715357674201839122" depart="13.00" departLane="-1585_1" departPos="5.34" departSpeed="0.00" departDelay="0.00" arrival="101.00" arrivalLane="-1633_1" arrivalPos="11.38" arrivalSpeed="13.29" duration="88.00" routeLength="1085.27" waitingTime="0.00" waitingCount="0" stopTime="0.00" timeLoss="6.53" rerouteNo="0" devices="tripinfo_randomCar_1715357674201839122" vType="vehicle.dodge.charger_police_2020" speedFactor="0.96" vaporized=""/>
    <personinfo id="randomPedestrian_1715357704585581956" depart="62.00" type="DEFAULT_PEDTYPE">
        <walk depart="62.00" departPos="0.00" arrival="102.00" arrivalPos="0.00" duration="40.00" routeLength="71.97" timeLoss="-11.82" maxSpeed="1.39"/>
    </personinfo>
    <tripinfo id="randomCar_1715357673581290588" depart="11.00" departLane="-1471_1" departPos="5.34" departSpeed="0.00" departDelay="0.00" arrival="102.00" arrivalLane="-1601_1" arrivalPos="6.57" arrivalSpeed="10.72" duration="91.00" routeLength="772.33" waitingTime="10.00" waitingCount="1" stopTime="0.00" timeLoss="39.04" rerouteNo="0" devices="tripinfo_randomCar_1715357673581290588" vType="vehicle.dodge.charger_police_2020" speedFactor="1.00" vaporized=""/>
    <tripinfo id="randomMotorcycle_1715357678540282733" depart="20.00" departLane="-1605_1" departPos="2.14" departSpeed="0.00" departDelay="0.00" arrival="103.00" arrivalLane="-1573_1" arrivalPos="77.57" arrivalSpeed="8.48" duration="83.00" routeLength="867.82" waitingTime="0.00" waitingCount="0" stopTime="0.00" timeLoss="17.91" rerouteNo="0" devices="tripinfo_randomMotorcycle_1715357678540282733" vType="vehicle.kawasaki.ninja" speedFactor="0.85" vaporized=""/>
    <tripinfo id="randomMotorcycle_1715357683501675411" depart="27.00" departLane="-1505_1" departPos="0.20" departSpeed="0.00" departDelay="0.00" arrival="103.00" arrivalLane="-1444_1" arrivalPos="63.36" arrivalSpeed="16.00" duration="76.00" routeLength="1017.78" waitingTime="1.00" waitingCount="1" stopTime="0.00" timeLoss="15.81" rerouteNo="0" devices="tripinfo_randomMotorcycle_1715357683501675411" vType="vehicle.kawasaki.ninja" speedFactor="1.27" vaporized=""/>
    <tripinfo id="randomMotorcycle_1715357690942995247" depart="39.00" departLane="-1661_1" departPos="2.14" departSpeed="0.00" departDelay="0.00" arrival="107.00" arrivalLane="-1576_1" arrivalPos="60.09" arrivalSpeed="13.69" duration="68.00" routeLength="823.97" waitingTime="1.00" waitingCount="1" stopTime="0.00" timeLoss="15.56" rerouteNo="0" devices="tripinfo_randomMotorcycle_1715357690942995247" vType="vehicle.kawasaki.ninja" speedFactor="1.17" vaporized=""/>
    <tripinfo id="randomCar_1715357684742910019" depart="29.00" departLane="-1439_1" departPos="0.20" departSpeed="0.00" departDelay="0.00" arrival="108.00" arrivalLane="-1579_1" arrivalPos="89.57" arrivalSpeed="14.02" duration="79.00" routeLength="460.06" waitingTime="17.00" waitingCount="2" stopTime="0.00" timeLoss="46.69" rerouteNo="0" devices="tripinfo_randomCar_1715357684742910019" vType="vehicle.dodge.charger_police_2020" speedFactor="1.02" vaporized=""/>
    <tripinfo id="randomCar_1715357682883697532" depart="27.00" departLane="-1615_1" departPos="5.34" departSpeed="0.00" departDelay="0.00" arrival="111.00" arrivalLane="-1653_1" arrivalPos="7.71" arrivalSpeed="3.94" duration="84.00" routeLength="721.08" waitingTime="1.00" waitingCount="1" stopTime="0.00" timeLoss="18.38" rerouteNo="0" devices="tripinfo_randomCar_1715357682883697532" vType="vehicle.dodge.charger_police_2020" speedFactor="0.86" vaporized=""/>
    <personinfo id="randomPedestrian_1715357694045522790" depart="44.00" type="DEFAULT_PEDTYPE">
        <walk depart="44.00" departPos="0.00" arrival="114.00" arrivalPos="0.00" duration="70.00" routeLength="99.15" timeLoss="-1.39" maxSpeed="1.39"/>
    </personinfo>
    <tripinfo id="randomCar_1715357673579535870" depart="11.00" departLane="-1512_1" departPos="0.20" departSpeed="0.00" departDelay="0.00" arrival="114.00" arrivalLane="-1477_1" arrivalPos="41.35" arrivalSpeed="14.39" duration="103.00" routeLength="842.00" waitingTime="8.00" waitingCount="2" stopTime="0.00" timeLoss="48.26" rerouteNo="0" devices="tripinfo_randomCar_1715357673579535870" vType="vehicle.dodge.charger_police_2020" speedFactor="1.20" vaporized=""/>
    <tripinfo id="randomMotorcycle_1715357679159284728" depart="22.00" departLane="-1561_1" departPos="1.09" departSpeed="0.00" departDelay="2.00" arrival="123.00" arrivalLane="-1477_1" arrivalPos="41.35" arrivalSpeed="13.29" duration="101.00" routeLength="886.65" waitingTime="3.00" waitingCount="2" stopTime="0.00" timeLoss="38.11" rerouteNo="0" devices="tripinfo_randomMotorcycle_1715357679159284728" vType="vehicle.kawasaki.ninja" speedFactor="1.10" vaporized=""/>
    <tripinfo id="randomCar_1715357677921714032" depart="19.00" departLane="-1655_1" departPos="0.20" departSpeed="0.00" departDelay="0.00" arrival="125.00" arrivalLane="-1529_2" arrivalPos="78.96" arrivalSpeed="13.44" duration="106.00" routeLength="978.32" waitingTime="0.00" waitingCount="0" stopTime="0.00" timeLoss="29.65" rerouteNo="0" devices="tripinfo_randomCar_1715357677921714032" vType="vehicle.dodge.charger_police_2020" speedFactor="1.02" vaporized=""/>
    <tripinfo id="randomMotorcycle_1715357689081738604" depart="36.00" departLane="-1662_1" departPos="2.14" departSpeed="0.00" departDelay="0.00" arrival="126.00" arrivalLane="-1610_1" arrivalPos="123.98" arrivalSpeed="12.84" duration="90.00" routeLength="984.67" waitingTime="1.00" waitingCount="1" stopTime="0.00" timeLoss="18.28" rerouteNo="0" devices="tripinfo_randomMotorcycle_1715357689081738604" vType="vehicle.kawasaki.ninja" speedFactor="1.03" vaporized=""/>
    <tripinfo id="randomMotorcycle_1715357685362848439" depart="31.00" departLane="-1637_1" departPos="2.14" departSpeed="0.00" departDelay="0.00" arrival="127.00" arrivalLane="-1540_1" arrivalPos="66.16" arrivalSpeed="10.01" duration="96.00" routeLength="563.73" waitingTime="29.00" waitingCount="1" stopTime="0.00" timeLoss="56.92" rerouteNo="0" devices="tripinfo_randomMotorcycle_1715357685362848439" vType="vehicle.kawasaki.ninja" speedFactor="1.09" vaporized=""/>
    <tripinfo id="randomBike_1715357701485259696" depart="56.00" departLane="-1552_1" departPos="1.94" departSpeed="0.00" departDelay="0.00" arrival="127.00" arrivalLane="-1578_1" arrivalPos="0.10" arrivalSpeed="5.18" duration="71.00" routeLength="165.39" waitingTime="32.00" waitingCount="1" stopTime="0.00" timeLoss="40.84" rerouteNo="0" devices="tripinfo_randomBike_1715357701485259696" vType="vehicle.gazelle.omafiets" speedFactor="0.89" vaporized=""/>
    <tripinfo id="randomBike_1715357687841705305" depart="34.00" departLane="-1637_2" departPos="1.94" departSpeed="0.00" departDelay="0.00" arrival="128.00" arrivalLane="-1618_1" arrivalPos="128.84" arrivalSpeed="5.42" duration="94.00" routeLength="454.01" waitingTime="0.00" waitingCount="0" stopTime="0.00" timeLoss="12.25" rerouteNo="0" devices="tripinfo_randomBike_1715357687841705305" vType="vehicle.gazelle.omafiets" speedFactor="1.14" vaporized=""/>
    <tripinfo id="randomMotorcycle_1715357693421884506" depart="44.00" departLane="-1485_1" departPos="0.20" departSpeed="0.00" departDelay="0.00" arrival="128.00" arrivalLane="-1522_2" arrivalPos="192.03" arrivalSpeed="12.60" duration="84.00" routeLength="586.42" waitingTime="0.00" waitingCount="0" stopTime="0.00" timeLoss="41.69" rerouteNo="0" devices="tripinfo_randomMotorcycle_1715357693421884506" vType="vehicle.kawasaki.ninja" speedFactor="1.05" vaporized=""/>
    <tripinfo id="randomCar_1715357674818919597" depart="13.00" departLane="-1634_1" departPos="5.34" departSpeed="0.00" departDelay="0.00" arrival="130.00" arrivalLane="-1456_1" arrivalPos="34.14" arrivalSpeed="12.01" duration="117.00" routeLength="1270.87" waitingTime="0.00" waitingCount="0" stopTime="0.00" timeLoss="13.64" rerouteNo="0" devices="tripinfo_randomCar_1715357674818919597" vType="vehicle.dodge.charger_police_2020" speedFactor="0.90" vaporized=""/>
    <tripinfo id="randomMotorcycle_1715357690953727404" depart="61.00" departLane="-1474_1" departPos="2.14" departSpeed="0.00" departDelay="21.00" arrival="130.00" arrivalLane="-1628_1" arrivalPos="30.67" arrivalSpeed="13.39" duration="69.00" routeLength="549.72" waitingTime="0.00" waitingCount="0" stopTime="0.00" timeLoss="29.15" rerouteNo="0" devices="tripinfo_randomMotorcycle_1715357690953727404" vType="vehicle.kawasaki.ninja" speedFactor="1.00" vaporized=""/>
    <tripinfo id="randomMotorcycle_1715357682884352423" depart="27.00" departLane="-1452_1" departPos="2.14" departSpeed="0.00" departDelay="0.00" arrival="131.00" arrivalLane="-1654_1" arrivalPos="0.20" arrivalSpeed="8.47" duration="104.00" routeLength="870.91" waitingTime="5.00" waitingCount="2" stopTime="0.00" timeLoss="31.82" rerouteNo="0" devices="tripinfo_randomMotorcycle_1715357682884352423" vType="vehicle.kawasaki.ninja" speedFactor="0.89" vaporized=""/>
    <tripinfo id="randomBike_1715357687219924113" depart="33.00" departLane="-1605_1" departPos="1.94" departSpeed="0.00" departDelay="0.00" arrival="131.00" arrivalLane="-1601_1" arrivalPos="6.57" arrivalSpeed="5.07" duration="98.00" routeLength="495.11" waitingTime="0.00" waitingCount="0" stopTime="0.00" timeLoss="8.76" rerouteNo="0" devices="tripinfo_randomBike_1715357687219924113" vType="vehicle.gazelle.omafiets" speedFactor="1.03" vaporized=""/>
    <tripinfo id="randomCar_1715357687223106215" depart="33.00" departLane="-1508_1" departPos="5.34" departSpeed="0.00" departDelay="0.00" arrival="131.00" arrivalLane="-1571_1" arrivalPos="58.33" arrivalSpeed="11.24" duration="98.00" routeLength="961.65" waitingTime="0.00" waitingCount="0" stopTime="0.00" timeLoss="25.68" rerouteNo="0" devices="tripinfo_randomCar_1715357687223106215" vType="vehicle.dodge.charger_police_2020" speedFactor="1.06" vaporized=""/>
    <tripinfo id="randomMotorcycle_1715357684123682432" depart="29.00" departLane="-1444_1" departPos="2.14" departSpeed="0.00" departDelay="0.00" arrival="133.00" arrivalLane="-1578_1" arrivalPos="0.10" arrivalSpeed="5.48" duration="104.00" routeLength="805.78" waitingTime="6.00" waitingCount="1" stopTime="0.00" timeLoss="41.06" rerouteNo="0" devices="tripinfo_randomMotorcycle_1715357684123682432" vType="vehicle.kawasaki.ninja" speedFactor="0.98" vaporized=""/>
    <tripinfo id="randomMotorcycle_1715357687226214993" depart="37.00" departLane="-1605_1" departPos="2.14" departSpeed="0.00" departDelay="3.00" arrival="133.00" arrivalLane="-1630_1" arrivalPos="19.31" arrivalSpeed="10.23" duration="96.00" routeLength="512.87" waitingTime="2.00" waitingCount="1" stopTime="0.00" timeLoss="53.75" rerouteNo="0" devices="tripinfo_randomMotorcycle_1715357687226214993" vType="vehicle.kawasaki.ninja" speedFactor="0.89" vaporized=""/>
</tripinfos>
