<?xml version="1.0" encoding="UTF-8"?>

<!-- generated on 2024-04-30 18:35:28 by Eclipse SUMO GUI Version 1.12.0
<configuration xmlns:xsi="http://www.w3.org/2001/XMLSchema-instance" xsi:noNamespaceSchemaLocation="http://sumo.dlr.de/xsd/sumoConfiguration.xsd">

    <input>
        <net-file value="../Adapters/co_simulation/sumo_configuration/simple-map/UA.net.xml"/>
        <route-files value="../Adapters/co_simulation/sumo_configuration/simple-map/carlavtypes.rou.xml,../Adapters/co_simulation/sumo_configuration/simple-map/simple-map.rou.xml"/>
    </input>

    <output>
        <tripinfo-output value="tripinfo.xml"/>
    </output>

    <traci_server>
        <remote-port value="35327"/>
        <num-clients value="1"/>
    </traci_server>

    <gui_only>
        <gui-settings-file value="../Adapters/co_simulation/sumo_configuration/simple-map/simple-map.view.xml"/>
    </gui_only>

</configuration>
-->

<tripinfos xmlns:xsi="http://www.w3.org/2001/XMLSchema-instance" xsi:noNamespaceSchemaLocation="http://sumo.dlr.de/xsd/tripinfo_file.xsd">
    <tripinfo id="0" depart="3.00" departLane="-1466_1" departPos="5.34" departSpeed="0.00" departDelay="0.00" arrival="12.00" arrivalLane="-1465_1" arrivalPos="11.38" arrivalSpeed="13.75" duration="9.00" routeLength="73.18" waitingTime="0.00" waitingCount="0" stopTime="0.00" timeLoss="3.49" rerouteNo="0" devices="tripinfo_0" vType="vehicle.dodge.charger_police_2020" speedFactor="1.06" vaporized=""/>
    <tripinfo id="random_1714498561968136603" depart="53.00" departLane="-1647_1" departPos="0.20" departSpeed="0.00" departDelay="0.00" arrival="70.00" arrivalLane="-1588_1" arrivalPos="0.20" arrivalSpeed="6.46" duration="17.00" routeLength="121.44" waitingTime="0.00" waitingCount="0" stopTime="0.00" timeLoss="4.79" rerouteNo="0" devices="tripinfo_random_1714498561968136603" vType="vehicle.audi.etron" speedFactor="0.94" vaporized=""/>
    <tripinfo id="random_1714498560108267375" depart="52.00" departLane="-1640_0" departPos="3.73" departSpeed="0.00" departDelay="0.00" arrival="80.00" arrivalLane="-1622_2" arrivalPos="80.36" arrivalSpeed="2.21" duration="28.00" routeLength="303.04" waitingTime="0.00" waitingCount="0" stopTime="0.00" timeLoss="9.75" rerouteNo="0" devices="tripinfo_random_1714498560108267375" vType="vehicle.nissan.micra" speedFactor="1.06" vaporized="traci"/>
    <tripinfo id="random_1714498561347449794" depart="52.00" departLane="-1596_1" departPos="6.37" departSpeed="0.00" departDelay="0.00" arrival="80.00" arrivalLane="-1630_1" arrivalPos="0.89" arrivalSpeed="10.92" duration="28.00" routeLength="302.58" waitingTime="0.00" waitingCount="0" stopTime="0.00" timeLoss="3.78" rerouteNo="0" devices="tripinfo_random_1714498561347449794" vType="vehicle.tesla.cybertruck" speedFactor="0.94" vaporized="traci"/>
    <tripinfo id="random_1714498561348456394" depart="52.00" departLane="-1569_1" departPos="5.30" departSpeed="0.00" departDelay="0.00" arrival="80.00" arrivalLane="-1602_1" arrivalPos="59.56" arrivalSpeed="11.21" duration="28.00" routeLength="214.54" waitingTime="0.00" waitingCount="0" stopTime="0.00" timeLoss="11.00" rerouteNo="0" devices="tripinfo_random_1714498561348456394" vType="vehicle.carlamotors.carlacola" speedFactor="1.01" vaporized="traci"/>
    <tripinfo id="random_1714498561349879194" depart="52.00" departLane="-1563_1" departPos="5.30" departSpeed="0.00" departDelay="0.00" arrival="80.00" arrivalLane="-1593_1" arrivalPos="30.30" arrivalSpeed="10.69" duration="28.00" routeLength="179.91" waitingTime="0.00" waitingCount="0" stopTime="0.00" timeLoss="10.25" rerouteNo="0" devices="tripinfo_random_1714498561349879194" vType="vehicle.carlamotors.carlacola" speedFactor="1.04" vaporized="traci"/>
    <tripinfo id="random_1714498561350822294" depart="52.00" departLane="-1623_1" departPos="4.54" departSpeed="0.00" departDelay="0.00" arrival="80.00" arrivalLane=":129_0_2" arrivalPos="11.06" arrivalSpeed="10.00" duration="28.00" routeLength="302.82" waitingTime="0.00" waitingCount="0" stopTime="0.00" timeLoss="5.43" rerouteNo="0" devices="tripinfo_random_1714498561350822294" vType="vehicle.volkswagen.t2_2021" speedFactor="1.03" vaporized="traci"/>
    <tripinfo id="random_1714498561351622494" depart="52.00" departLane="-1661_1" departPos="4.29" departSpeed="0.00" departDelay="0.00" arrival="80.00" arrivalLane="-1661_1" arrivalPos="273.26" arrivalSpeed="10.28" duration="28.00" routeLength="268.96" waitingTime="0.00" waitingCount="0" stopTime="0.00" timeLoss="3.70" rerouteNo="0" devices="tripinfo_random_1714498561351622494" vType="vehicle.seat.leon" speedFactor="0.83" vaporized="traci"/>
    <tripinfo id="random_1714498561352447594" depart="52.00" departLane="-1616_2" departPos="2.45" departSpeed="0.00" departDelay="0.00" arrival="80.00" arrivalLane="-1617_2" arrivalPos="69.99" arrivalSpeed="0.00" duration="28.00" routeLength="177.10" waitingTime="5.00" waitingCount="1" stopTime="0.00" timeLoss="10.09" rerouteNo="0" devices="tripinfo_random_1714498561352447594" vType="vehicle.harley-davidson.low_rider" speedFactor="1.05" vaporized="traci"/>
    <tripinfo id="random_1714498561353446094" depart="53.00" departLane="-1539_1" departPos="4.61" departSpeed="0.00" departDelay="0.00" arrival="80.00" arrivalLane="-1473_1" arrivalPos="251.94" arrivalSpeed="18.83" duration="27.00" routeLength="415.55" waitingTime="0.00" waitingCount="0" stopTime="0.00" timeLoss="4.29" rerouteNo="0" devices="tripinfo_random_1714498561353446094" vType="vehicle.toyota.prius" speedFactor="0.89" vaporized="traci"/>
    <tripinfo id="random_1714498561969142303" depart="53.00" departLane="-1530_1" departPos="4.70" departSpeed="0.00" departDelay="0.00" arrival="80.00" arrivalLane=":111_7_0" arrivalPos="5.79" arrivalSpeed="4.56" duration="27.00" routeLength="201.43" waitingTime="0.00" waitingCount="0" stopTime="0.00" timeLoss="4.17" rerouteNo="0" devices="tripinfo_random_1714498561969142303" vType="vehicle.nissan.patrol" speedFactor="0.86" vaporized="traci"/>
    <tripinfo id="random_1714498561970948703" depart="54.00" departLane="-1498_0" departPos="0.20" departSpeed="0.00" departDelay="0.00" arrival="80.00" arrivalLane="-1626_1" arrivalPos="25.17" arrivalSpeed="5.07" duration="26.00" routeLength="118.37" waitingTime="0.00" waitingCount="0" stopTime="0.00" timeLoss="3.69" rerouteNo="0" devices="tripinfo_random_1714498561970948703" vType="DEFAULT_BIKETYPE" speedFactor="1.09" vaporized="traci"/>
    <tripinfo id="random_1714498562589657612" depart="55.00" departLane="-1502_0" departPos="0.20" departSpeed="0.00" departDelay="0.00" arrival="80.00" arrivalLane="-1626_1" arrivalPos="15.26" arrivalSpeed="5.23" duration="25.00" routeLength="111.77" waitingTime="0.00" waitingCount="0" stopTime="0.00" timeLoss="14.56" rerouteNo="0" devices="tripinfo_random_1714498562589657612" vType="DEFAULT_VEHTYPE" speedFactor="1.03" vaporized="traci"/>
    <tripinfo id="random_1714498563209955421" depart="55.00" departLane="-1594_1" departPos="0.20" departSpeed="0.00" departDelay="0.00" arrival="80.00" arrivalLane="-1507_1" arrivalPos="246.97" arrivalSpeed="13.26" duration="25.00" routeLength="288.58" waitingTime="0.00" waitingCount="0" stopTime="0.00" timeLoss="4.16" rerouteNo="0" devices="tripinfo_random_1714498563209955421" vType="vehicle.lincoln.mkz_2020" speedFactor="1.05" vaporized="traci"/>
    <tripinfo id="random_1714498563210799721" depart="58.00" departLane="-1535_1" departPos="3.81" departSpeed="0.00" departDelay="2.00" arrival="80.00" arrivalLane="-1473_1" arrivalPos="216.30" arrivalSpeed="20.33" duration="22.00" routeLength="353.52" waitingTime="0.00" waitingCount="0" stopTime="0.00" timeLoss="6.64" rerouteNo="0" devices="tripinfo_random_1714498563210799721" vType="vehicle.audi.a2" speedFactor="1.12" vaporized="traci"/>
    <tripinfo id="random_1714498563829941731" depart="57.00" departLane="-1557_1" departPos="2.31" departSpeed="0.00" departDelay="0.00" arrival="80.00" arrivalLane="-1574_1" arrivalPos="44.34" arrivalSpeed="13.34" duration="23.00" routeLength="231.45" waitingTime="0.00" waitingCount="0" stopTime="0.00" timeLoss="5.00" rerouteNo="0" devices="tripinfo_random_1714498563829941731" vType="vehicle.micro.microlino" speedFactor="0.99" vaporized="traci"/>
    <tripinfo id="random_1714498564450194940" depart="57.00" departLane="-1617_2" departPos="4.70" departSpeed="0.00" departDelay="0.00" arrival="80.00" arrivalLane="-1617_2" arrivalPos="77.10" arrivalSpeed="0.00" duration="23.00" routeLength="72.39" waitingTime="11.00" waitingCount="1" stopTime="0.00" timeLoss="16.38" rerouteNo="0" devices="tripinfo_random_1714498564450194940" vType="vehicle.nissan.patrol" speedFactor="0.93" vaporized="traci"/>
    <tripinfo id="random_1714498564451454140" depart="58.00" departLane="-1643_1" departPos="5.10" departSpeed="0.00" departDelay="0.00" arrival="80.00" arrivalLane="-1532_1" arrivalPos="101.38" arrivalSpeed="9.58" duration="22.00" routeLength="185.21" waitingTime="0.00" waitingCount="0" stopTime="0.00" timeLoss="5.23" rerouteNo="0" devices="tripinfo_random_1714498564451454140" vType="DEFAULT_VEHTYPE" speedFactor="0.88" vaporized="traci"/>
    <tripinfo id="random_1714498565069635249" depart="58.00" departLane="-1554_1" departPos="5.67" departSpeed="0.00" departDelay="0.00" arrival="80.00" arrivalLane="-1651_1" arrivalPos="44.32" arrivalSpeed="12.16" duration="22.00" routeLength="200.86" waitingTime="0.00" waitingCount="0" stopTime="0.00" timeLoss="5.14" rerouteNo="0" devices="tripinfo_random_1714498565069635249" vType="vehicle.nissan.patrol_2021" speedFactor="0.94" vaporized="traci"/>
    <tripinfo id="random_1714498565072166749" depart="59.00" departLane="-1477_1" departPos="4.58" departSpeed="0.00" departDelay="0.00" arrival="80.00" arrivalLane="-1662_1" arrivalPos="31.13" arrivalSpeed="11.23" duration="21.00" routeLength="197.64" waitingTime="0.00" waitingCount="0" stopTime="0.00" timeLoss="5.97" rerouteNo="0" devices="tripinfo_random_1714498565072166749" vType="vehicle.volkswagen.t2" speedFactor="0.94" vaporized="traci"/>
    <tripinfo id="random_1714498565690670759" depart="59.00" departLane="-1491_1" departPos="1.66" departSpeed="0.00" departDelay="0.00" arrival="80.00" arrivalLane="-1626_1" arrivalPos="1.39" arrivalSpeed="6.13" duration="21.00" routeLength="85.21" waitingTime="1.00" waitingCount="1" stopTime="0.00" timeLoss="14.09" rerouteNo="0" devices="tripinfo_random_1714498565690670759" vType="vehicle.micro.microlino" speedFactor="1.16" vaporized="traci"/>
    <tripinfo id="random_1714498565693687859" depart="61.00" departLane="-1578_1" departPos="0.10" departSpeed="0.00" departDelay="0.00" arrival="80.00" arrivalLane=":103_0_1" arrivalPos="10.75" arrivalSpeed="5.55" duration="19.00" routeLength="80.82" waitingTime="0.00" waitingCount="0" stopTime="0.00" timeLoss="3.45" rerouteNo="0" devices="tripinfo_random_1714498565693687859" vType="DEFAULT_BIKETYPE" speedFactor="1.02" vaporized="traci"/>
    <tripinfo id="random_1714498566931559777" depart="61.00" departLane="-1568_1" departPos="5.10" departSpeed="0.00" departDelay="0.00" arrival="80.00" arrivalLane="-1568_1" arrivalPos="208.57" arrivalSpeed="13.85" duration="19.00" routeLength="203.47" waitingTime="0.00" waitingCount="0" stopTime="0.00" timeLoss="3.50" rerouteNo="0" devices="tripinfo_random_1714498566931559777" vType="DEFAULT_VEHTYPE" speedFactor="1.01" vaporized="traci"/>
    <tripinfo id="random_1714498566933548977" depart="61.00" departLane="-1465_1" departPos="4.29" departSpeed="0.00" departDelay="0.00" arrival="80.00" arrivalLane="-1461_1" arrivalPos="82.84" arrivalSpeed="12.99" duration="19.00" routeLength="170.52" waitingTime="0.00" waitingCount="0" stopTime="0.00" timeLoss="4.98" rerouteNo="0" devices="tripinfo_random_1714498566933548977" vType="vehicle.seat.leon" speedFactor="0.98" vaporized="traci"/>
    <tripinfo id="random_1714498566934648477" depart="62.00" departLane="-1494_1" departPos="0.20" departSpeed="0.00" departDelay="0.00" arrival="80.00" arrivalLane="-1456_1" arrivalPos="30.51" arrivalSpeed="4.47" duration="18.00" routeLength="85.37" waitingTime="0.00" waitingCount="0" stopTime="0.00" timeLoss="7.93" rerouteNo="0" devices="tripinfo_random_1714498566934648477" vType="vehicle.mercedes.coupe" speedFactor="0.89" vaporized="traci"/>
    <tripinfo id="random_1714498567551238986" depart="62.00" departLane="-1445_1" departPos="8.57" departSpeed="0.00" departDelay="0.00" arrival="80.00" arrivalLane="-1599_1" arrivalPos="41.86" arrivalSpeed="11.12" duration="18.00" routeLength="112.76" waitingTime="0.00" waitingCount="0" stopTime="0.00" timeLoss="5.92" rerouteNo="0" devices="tripinfo_random_1714498567551238986" vType="vehicle.carlamotors.firetruck" speedFactor="0.83" vaporized="traci"/>
    <tripinfo id="random_1714498567553465787" depart="62.00" departLane="-1511_1" departPos="0.20" departSpeed="0.00" departDelay="0.00" arrival="80.00" arrivalLane="-1504_1" arrivalPos="34.44" arrivalSpeed="5.29" duration="18.00" routeLength="71.41" waitingTime="0.00" waitingCount="0" stopTime="0.00" timeLoss="3.74" rerouteNo="0" devices="tripinfo_random_1714498567553465787" vType="vehicle.bh.crossbike" speedFactor="0.87" vaporized="traci"/>
    <tripinfo id="random_1714498567554648987" depart="63.00" departLane="-1650_1" departPos="4.29" departSpeed="0.00" departDelay="0.00" arrival="80.00" arrivalLane="-1651_1" arrivalPos="10.94" arrivalSpeed="8.72" duration="17.00" routeLength="91.73" waitingTime="2.00" waitingCount="1" stopTime="0.00" timeLoss="8.80" rerouteNo="0" devices="tripinfo_random_1714498567554648987" vType="vehicle.seat.leon" speedFactor="0.92" vaporized="traci"/>
    <tripinfo id="random_1714498568172980488" depart="64.00" departLane="-1629_1" departPos="4.96" departSpeed="0.00" departDelay="0.00" arrival="80.00" arrivalLane=":111_4_0" arrivalPos="14.74" arrivalSpeed="8.73" duration="16.00" routeLength="141.04" waitingTime="0.00" waitingCount="0" stopTime="0.00" timeLoss="3.85" rerouteNo="0" devices="tripinfo_random_1714498568172980488" vType="vehicle.audi.etron" speedFactor="0.95" vaporized="traci"/>
    <tripinfo id="random_1714498568792813487" depart="64.00" departLane="-1628_1" departPos="4.65" departSpeed="0.00" departDelay="0.00" arrival="80.00" arrivalLane="-1533_1" arrivalPos="18.42" arrivalSpeed="14.84" duration="16.00" routeLength="175.63" waitingTime="0.00" waitingCount="0" stopTime="0.00" timeLoss="3.83" rerouteNo="0" devices="tripinfo_random_1714498568792813487" vType="vehicle.mini.cooper_s_2021" speedFactor="1.13" vaporized="traci"/>
    <tripinfo id="random_1714498568795840587" depart="65.00" departLane="-1486_1" departPos="5.67" departSpeed="0.00" departDelay="0.00" arrival="80.00" arrivalLane="-1471_1" arrivalPos="13.72" arrivalSpeed="12.76" duration="15.00" routeLength="140.08" waitingTime="0.00" waitingCount="0" stopTime="0.00" timeLoss="3.17" rerouteNo="0" devices="tripinfo_random_1714498568795840587" vType="vehicle.nissan.patrol_2021" speedFactor="0.93" vaporized="traci"/>
    <tripinfo id="random_1714498569413524886" depart="65.00" departLane="-1575_1" departPos="5.47" departSpeed="0.00" departDelay="0.00" arrival="80.00" arrivalLane="-1576_1" arrivalPos="34.76" arrivalSpeed="11.06" duration="15.00" routeLength="99.76" waitingTime="0.00" waitingCount="0" stopTime="0.00" timeLoss="7.16" rerouteNo="0" devices="tripinfo_random_1714498569413524886" vType="vehicle.ford.crown" speedFactor="1.18" vaporized="traci"/>
    <tripinfo id="random_1714498569414556886" depart="66.00" departLane="-1415_0" departPos="5.30" departSpeed="0.00" departDelay="0.00" arrival="80.00" arrivalLane="-1415_0" arrivalPos="84.46" arrivalSpeed="7.41" duration="14.00" routeLength="79.16" waitingTime="0.00" waitingCount="0" stopTime="0.00" timeLoss="10.36" rerouteNo="0" devices="tripinfo_random_1714498569414556886" vType="vehicle.carlamotors.carlacola" speedFactor="1.08" vaporized="traci"/>
    <tripinfo id="random_1714498570032333386" depart="68.00" departLane="-1486_1" departPos="4.58" departSpeed="0.00" departDelay="2.00" arrival="80.00" arrivalLane="-1472_1" arrivalPos="56.89" arrivalSpeed="13.89" duration="12.00" routeLength="109.06" waitingTime="0.00" waitingCount="0" stopTime="0.00" timeLoss="3.19" rerouteNo="0" devices="tripinfo_random_1714498570032333386" vType="vehicle.volkswagen.t2" speedFactor="1.01" vaporized="traci"/>
    <tripinfo id="random_1714498570034774086" depart="67.00" departLane="-1628_1" departPos="5.30" departSpeed="0.00" departDelay="0.00" arrival="80.00" arrivalLane="-1642_1" arrivalPos="35.81" arrivalSpeed="11.20" duration="13.00" routeLength="73.77" waitingTime="0.00" waitingCount="0" stopTime="0.00" timeLoss="7.11" rerouteNo="0" devices="tripinfo_random_1714498570034774086" vType="vehicle.carlamotors.carlacola" speedFactor="1.09" vaporized="traci"/>
    <tripinfo id="random_1714498570654811185" depart="67.00" departLane="-1623_1" departPos="5.34" departSpeed="0.00" departDelay="0.00" arrival="80.00" arrivalLane="-1623_1" arrivalPos="127.40" arrivalSpeed="13.57" duration="13.00" routeLength="122.06" waitingTime="0.00" waitingCount="0" stopTime="0.00" timeLoss="3.17" rerouteNo="0" devices="tripinfo_random_1714498570654811185" vType="vehicle.dodge.charger_police_2020" speedFactor="0.99" vaporized="traci"/>
    <tripinfo id="random_1714498570655849385" depart="67.00" departLane="-1622_2" departPos="4.28" departSpeed="0.00" departDelay="0.00" arrival="80.00" arrivalLane="-1622_2" arrivalPos="87.51" arrivalSpeed="0.06" duration="13.00" routeLength="83.23" waitingTime="1.00" waitingCount="1" stopTime="0.00" timeLoss="6.12" rerouteNo="0" devices="tripinfo_random_1714498570655849385" vType="vehicle.audi.tt" speedFactor="1.02" vaporized="traci"/>
    <tripinfo id="random_1714498570656864485" depart="67.00" departLane="-1555_1" departPos="6.02" departSpeed="0.00" departDelay="0.00" arrival="80.00" arrivalLane="-1613_2" arrivalPos="4.20" arrivalSpeed="6.75" duration="13.00" routeLength="97.67" waitingTime="0.00" waitingCount="0" stopTime="0.00" timeLoss="3.96" rerouteNo="0" devices="tripinfo_random_1714498570656864485" vType="vehicle.mercedes.sprinter" speedFactor="0.97" vaporized="traci"/>
    <tripinfo id="random_1714498570657832885" depart="76.00" departLane="-1456_1" departPos="4.09" departSpeed="0.00" departDelay="8.00" arrival="80.00" arrivalLane="-1456_1" arrivalPos="14.48" arrivalSpeed="5.03" duration="4.00" routeLength="10.40" waitingTime="0.00" waitingCount="0" stopTime="0.00" timeLoss="2.37" rerouteNo="0" devices="tripinfo_random_1714498570657832885" vType="vehicle.citroen.c3" speedFactor="1.18" vaporized="traci"/>
    <tripinfo id="random_1714498571274675684" depart="68.00" departLane="-1624_1" departPos="6.37" departSpeed="0.00" departDelay="0.00" arrival="80.00" arrivalLane="-1607_2" arrivalPos="33.63" arrivalSpeed="10.40" duration="12.00" routeLength="93.87" waitingTime="0.00" waitingCount="0" stopTime="0.00" timeLoss="4.87" rerouteNo="0" devices="tripinfo_random_1714498571274675684" vType="vehicle.tesla.cybertruck" speedFactor="1.10" vaporized="traci"/>
    <tripinfo id="random_1714498571276260584" depart="69.00" departLane="-1645_1" departPos="5.10" departSpeed="0.00" departDelay="0.00" arrival="80.00" arrivalLane="-1645_1" arrivalPos="118.24" arrivalSpeed="20.11" duration="11.00" routeLength="113.14" waitingTime="0.00" waitingCount="0" stopTime="0.00" timeLoss="4.64" rerouteNo="0" devices="tripinfo_random_1714498571276260584" vType="DEFAULT_TAXITYPE" speedFactor="0.95" vaporized="traci"/>
    <tripinfo id="random_1714498571895948484" depart="69.00" departLane="-1483_1" departPos="0.20" departSpeed="0.00" departDelay="0.00" arrival="80.00" arrivalLane="-1610_2" arrivalPos="32.91" arrivalSpeed="13.78" duration="11.00" routeLength="83.44" waitingTime="0.00" waitingCount="0" stopTime="0.00" timeLoss="3.62" rerouteNo="0" devices="tripinfo_random_1714498571895948484" vType="vehicle.audi.etron" speedFactor="1.03" vaporized="traci"/>
    <tripinfo id="random_1714498571897774084" depart="70.00" departLane="-1509_1" departPos="5.00" departSpeed="0.00" departDelay="0.00" arrival="80.00" arrivalLane="-1509_1" arrivalPos="85.01" arrivalSpeed="12.70" duration="10.00" routeLength="80.00" waitingTime="0.00" waitingCount="0" stopTime="0.00" timeLoss="2.98" rerouteNo="0" devices="tripinfo_random_1714498571897774084" vType="vehicle.lincoln.mkz_2017" speedFactor="0.96" vaporized="traci"/>
    <tripinfo id="random_1714498572515734783" depart="71.00" departLane="-1569_1" departPos="3.91" departSpeed="0.00" departDelay="1.00" arrival="80.00" arrivalLane="-1569_1" arrivalPos="78.49" arrivalSpeed="14.13" duration="9.00" routeLength="74.59" waitingTime="0.00" waitingCount="0" stopTime="0.00" timeLoss="3.08" rerouteNo="0" devices="tripinfo_random_1714498572515734783" vType="vehicle.mini.cooper_s" speedFactor="1.09" vaporized="traci"/>
    <tripinfo id="random_1714498572517390783" depart="70.00" departLane="-1555_1" departPos="4.77" departSpeed="0.00" departDelay="0.00" arrival="80.00" arrivalLane="-1555_1" arrivalPos="80.49" arrivalSpeed="9.44" duration="10.00" routeLength="75.72" waitingTime="0.00" waitingCount="0" stopTime="0.00" timeLoss="3.75" rerouteNo="0" devices="tripinfo_random_1714498572517390783" vType="vehicle.mercedes.coupe_2020" speedFactor="1.04" vaporized="traci"/>
    <tripinfo id="random_1714498572518214183" depart="70.00" departLane="-1447_1" departPos="4.54" departSpeed="0.00" departDelay="0.00" arrival="80.00" arrivalLane="-1447_1" arrivalPos="32.74" arrivalSpeed="0.01" duration="10.00" routeLength="28.19" waitingTime="2.00" waitingCount="1" stopTime="0.00" timeLoss="7.78" rerouteNo="0" devices="tripinfo_random_1714498572518214183" vType="vehicle.volkswagen.t2_2021" speedFactor="1.04" vaporized="traci"/>
    <tripinfo id="random_1714498572519479183" depart="71.00" departLane="-1632_1" departPos="4.29" departSpeed="0.00" departDelay="0.00" arrival="80.00" arrivalLane="-1634_1" arrivalPos="9.48" arrivalSpeed="14.71" duration="9.00" routeLength="76.32" waitingTime="0.00" waitingCount="0" stopTime="0.00" timeLoss="2.95" rerouteNo="0" devices="tripinfo_random_1714498572519479183" vType="vehicle.seat.leon" speedFactor="1.09" vaporized="traci"/>
    <tripinfo id="random_1714498573136501783" depart="71.00" departLane="-1513_1" departPos="4.82" departSpeed="0.00" departDelay="0.00" arrival="80.00" arrivalLane="-1525_1" arrivalPos="21.64" arrivalSpeed="12.98" duration="9.00" routeLength="70.09" waitingTime="0.00" waitingCount="0" stopTime="0.00" timeLoss="2.94" rerouteNo="0" devices="tripinfo_random_1714498573136501783" vType="vehicle.ford.mustang" speedFactor="1.00" vaporized="traci"/>
    <tripinfo id="random_1714498573137386783" depart="71.00" departLane="-1630_1" departPos="4.89" departSpeed="0.00" departDelay="0.00" arrival="80.00" arrivalLane="-1630_1" arrivalPos="19.21" arrivalSpeed="0.00" duration="9.00" routeLength="14.32" waitingTime="4.00" waitingCount="1" stopTime="0.00" timeLoss="6.86" rerouteNo="0" devices="tripinfo_random_1714498573137386783" vType="vehicle.tesla.model3" speedFactor="0.90" vaporized="traci"/>
    <tripinfo id="random_1714498573139076383" depart="72.00" departLane="-1410_1" departPos="6.02" departSpeed="0.00" departDelay="0.00" arrival="80.00" arrivalLane="-1409_1" arrivalPos="29.55" arrivalSpeed="12.17" duration="8.00" routeLength="56.74" waitingTime="0.00" waitingCount="0" stopTime="0.00" timeLoss="2.34" rerouteNo="0" devices="tripinfo_random_1714498573139076383" vType="vehicle.mercedes.sprinter" speedFactor="0.88" vaporized="traci"/>
    <tripinfo id="random_1714498573757010582" depart="72.00" departLane="-1610_1" departPos="2.29" departSpeed="0.00" departDelay="0.00" arrival="80.00" arrivalLane="-1610_1" arrivalPos="64.88" arrivalSpeed="11.49" duration="8.00" routeLength="62.59" waitingTime="0.00" waitingCount="0" stopTime="0.00" timeLoss="1.70" rerouteNo="0" devices="tripinfo_random_1714498573757010582" vType="vehicle.yamaha.yzf" speedFactor="0.85" vaporized="traci"/>
    <tripinfo id="random_1714498573758435782" depart="72.00" departLane="-1607_1" departPos="4.71" departSpeed="0.00" departDelay="0.00" arrival="80.00" arrivalLane="-1607_2" arrivalPos="53.79" arrivalSpeed="10.80" duration="8.00" routeLength="49.08" waitingTime="0.00" waitingCount="0" stopTime="0.00" timeLoss="2.87" rerouteNo="0" devices="tripinfo_random_1714498573758435782" vType="vehicle.bmw.grandtourer" speedFactor="0.85" vaporized="traci"/>
    <tripinfo id="random_1714498573759514682" depart="72.00" departLane="-1531_1" departPos="1.61" departSpeed="0.00" departDelay="0.00" arrival="80.00" arrivalLane="-1531_1" arrivalPos="25.77" arrivalSpeed="5.19" duration="8.00" routeLength="24.16" waitingTime="0.00" waitingCount="0" stopTime="0.00" timeLoss="2.65" rerouteNo="0" devices="tripinfo_random_1714498573759514682" vType="vehicle.bh.crossbike" speedFactor="1.17" vaporized="traci"/>
    <tripinfo id="random_1714498573760614482" depart="74.00" departLane="-1652_1" departPos="0.20" departSpeed="0.00" departDelay="2.00" arrival="80.00" arrivalLane=":82_0_1" arrivalPos="13.74" arrivalSpeed="10.34" duration="6.00" routeLength="34.06" waitingTime="0.00" waitingCount="0" stopTime="0.00" timeLoss="3.21" rerouteNo="0" devices="tripinfo_random_1714498573760614482" vType="vehicle.audi.etron" speedFactor="1.02" vaporized="traci"/>
    <tripinfo id="random_1714498573762118182" depart="72.00" departLane="-1417_1" departPos="4.99" departSpeed="0.00" departDelay="0.00" arrival="80.00" arrivalLane="-1417_1" arrivalPos="60.95" arrivalSpeed="13.55" duration="8.00" routeLength="55.96" waitingTime="0.00" waitingCount="0" stopTime="0.00" timeLoss="3.32" rerouteNo="0" devices="tripinfo_random_1714498573762118182" vType="vehicle.lincoln.mkz_2020" speedFactor="1.10" vaporized="traci"/>
    <tripinfo id="random_1714498573764134482" depart="72.00" departLane="-1476_1" departPos="6.47" departSpeed="0.00" departDelay="0.00" arrival="80.00" arrivalLane="-1476_1" arrivalPos="58.25" arrivalSpeed="11.87" duration="8.00" routeLength="51.79" waitingTime="0.00" waitingCount="0" stopTime="0.00" timeLoss="3.28" rerouteNo="0" devices="tripinfo_random_1714498573764134482" vType="vehicle.ford.ambulance" speedFactor="1.00" vaporized="traci"/>
    <tripinfo id="random_1714498573766098182" depart="73.00" departLane="-1562_1" departPos="0.42" departSpeed="0.00" departDelay="0.00" arrival="80.00" arrivalLane=":120_5_0" arrivalPos="4.11" arrivalSpeed="5.29" duration="7.00" routeLength="31.51" waitingTime="0.00" waitingCount="0" stopTime="0.00" timeLoss="2.29" rerouteNo="0" devices="tripinfo_random_1714498573766098182" vType="vehicle.seat.leon" speedFactor="1.00" vaporized="traci"/>
    <tripinfo id="random_1714498574377053481" depart="73.00" departLane="-1494_1" departPos="0.20" departSpeed="0.00" departDelay="0.00" arrival="80.00" arrivalLane=":84_1_0" arrivalPos="1.17" arrivalSpeed="6.09" duration="7.00" routeLength="28.14" waitingTime="0.00" waitingCount="0" stopTime="0.00" timeLoss="2.14" rerouteNo="0" devices="tripinfo_random_1714498574377053481" vType="vehicle.bmw.grandtourer" speedFactor="0.90" vaporized="traci"/>
    <tripinfo id="random_1714498574378501481" depart="74.00" departLane="-1551_1" departPos="4.28" departSpeed="0.00" departDelay="0.00" arrival="80.00" arrivalLane="-1551_1" arrivalPos="32.86" arrivalSpeed="9.50" duration="6.00" routeLength="28.58" waitingTime="0.00" waitingCount="0" stopTime="0.00" timeLoss="4.10" rerouteNo="0" devices="tripinfo_random_1714498574378501481" vType="vehicle.audi.tt" speedFactor="1.14" vaporized="traci"/>
    <tripinfo id="random_1714498574997503581" depart="79.00" departLane="-1651_1" departPos="2.14" departSpeed="0.00" departDelay="5.00" arrival="80.00" arrivalLane="-1651_1" arrivalPos="2.14" arrivalSpeed="0.00" duration="1.00" routeLength="0.00" waitingTime="0.00" waitingCount="0" stopTime="0.00" timeLoss="0.00" rerouteNo="0" devices="tripinfo_random_1714498574997503581" vType="vehicle.kawasaki.ninja" speedFactor="1.02" vaporized="traci"/>
    <tripinfo id="random_1714498574998665081" depart="75.00" departLane="-1631_1" departPos="3.73" departSpeed="0.00" departDelay="0.00" arrival="80.00" arrivalLane="-1427_1" arrivalPos="9.21" arrivalSpeed="9.04" duration="5.00" routeLength="22.28" waitingTime="0.00" waitingCount="0" stopTime="0.00" timeLoss="2.02" rerouteNo="0" devices="tripinfo_random_1714498574998665081" vType="vehicle.nissan.micra" speedFactor="0.97" vaporized="traci"/>
    <tripinfo id="random_1714498575617797180" depart="76.00" departLane="-1497_1" departPos="1.67" departSpeed="0.00" departDelay="0.00" arrival="80.00" arrivalLane=":90_0_0" arrivalPos="2.01" arrivalSpeed="2.01" duration="4.00" routeLength="2.01" waitingTime="2.00" waitingCount="1" stopTime="0.00" timeLoss="2.81" rerouteNo="0" devices="tripinfo_random_1714498575617797180" vType="vehicle.dodge.charger_police_2020" speedFactor="1.08" vaporized="traci"/>
    <tripinfo id="random_1714498619671389445" depart="147.00" departLane="-1532_1" departPos="2.31" departSpeed="0.00" departDelay="0.00" arrival="158.00" arrivalLane="-1532_1" arrivalPos="107.18" arrivalSpeed="14.27" duration="11.00" routeLength="104.87" waitingTime="0.00" waitingCount="0" stopTime="0.00" timeLoss="3.01" rerouteNo="0" devices="tripinfo_random_1714498619671389445" vType="vehicle.micro.microlino" speedFactor="1.03" vaporized=""/>
    <tripinfo id="random_1714498628347731999" depart="160.00" departLane="-1610_1" departPos="4.28" departSpeed="0.00" departDelay="0.00" arrival="173.00" arrivalLane="-1610_1" arrivalPos="123.98" arrivalSpeed="11.78" duration="13.00" routeLength="119.70" waitingTime="0.00" waitingCount="0" stopTime="0.00" timeLoss="3.48" rerouteNo="0" devices="tripinfo_random_1714498628347731999" vType="vehicle.audi.tt" speedFactor="0.93" vaporized=""/>