<?xml version="1.0" encoding="UTF-8"?>

<!-- generated on 2024-04-22 17:59:15 by Eclipse SUMO GUI Version 1.12.0
<configuration xmlns:xsi="http://www.w3.org/2001/XMLSchema-instance" xsi:noNamespaceSchemaLocation="http://sumo.dlr.de/xsd/sumoConfiguration.xsd">

    <input>
        <net-file value="../Adapters/co_simulation/sumo_configuration/simple-map/aveiro.net.xml"/>
        <route-files value="../Adapters/co_simulation/sumo_configuration/simple-map/carlavtypes.rou.xml,../Adapters/co_simulation/sumo_configuration/simple-map/simple-map.rou.xml"/>
    </input>

    <output>
        <tripinfo-output value="tripinfo.xml"/>
    </output>

    <traci_server>
        <remote-port value="53113"/>
        <num-clients value="1"/>
    </traci_server>

    <gui_only>
        <gui-settings-file value="../Adapters/co_simulation/sumo_configuration/simple-map/simple-map.view.xml"/>
        <quit-on-end value="true"/>
    </gui_only>

</configuration>
-->

<tripinfos xmlns:xsi="http://www.w3.org/2001/XMLSchema-instance" xsi:noNamespaceSchemaLocation="http://sumo.dlr.de/xsd/tripinfo_file.xsd">
    <tripinfo id="35002" depart="4.00" departLane="-5258_2" departPos="18.32" departSpeed="0.00" departDelay="-1.00" arrival="5.00" arrivalLane="-5258_2" arrivalPos="18.42" arrivalSpeed="1.98" duration="1.00" routeLength="0.10" waitingTime="0.00" waitingCount="0" stopTime="0.00" timeLoss="0.87" rerouteNo="0" devices="tripinfo_35002" vType="vehicle.audi.a2" speedFactor="1.08" vaporized=""/>
    <tripinfo id="35010" depart="8.00" departLane="-5257_2" departPos="447.94" departSpeed="0.00" departDelay="-1.00" arrival="15.00" arrivalLane="-5258_2" arrivalPos="18.42" arrivalSpeed="14.13" duration="7.00" routeLength="48.69" waitingTime="0.00" waitingCount="0" stopTime="0.00" timeLoss="3.17" rerouteNo="0" devices="tripinfo_35010" vType="vehicle.audi.a2" speedFactor="1.05" vaporized=""/>
    <tripinfo id="35011" depart="9.00" departLane="-5257_2" departPos="443.53" departSpeed="0.00" departDelay="-1.00" arrival="18.00" arrivalLane="-5258_2" arrivalPos="18.42" arrivalSpeed="11.52" duration="9.00" routeLength="53.10" waitingTime="1.00" waitingCount="1" stopTime="0.00" timeLoss="3.79" rerouteNo="0" devices="tripinfo_35011" vType="vehicle.audi.a2" speedFactor="0.89" vaporized=""/>
    <tripinfo id="35014" depart="32.00" departLane="-5257_2" departPos="451.18" departSpeed="0.00" departDelay="-1.00" arrival="39.00" arrivalLane="-5258_2" arrivalPos="18.42" arrivalSpeed="15.19" duration="7.00" routeLength="45.45" waitingTime="0.00" waitingCount="0" stopTime="0.00" timeLoss="3.32" rerouteNo="0" devices="tripinfo_35014" vType="vehicle.audi.a2" speedFactor="1.18" vaporized=""/>
    <tripinfo id="35007" depart="1.00" departLane="-5186_1" departPos="0.00" departSpeed="0.00" departDelay="-1.00" arrival="41.00" arrivalLane="-5186_1" arrivalPos="524.34" arrivalSpeed="14.35" duration="40.00" routeLength="524.34" waitingTime="0.00" waitingCount="0" stopTime="0.00" timeLoss="4.38" rerouteNo="0" devices="tripinfo_35007" vType="vehicle.audi.a2" speedFactor="1.06" vaporized=""/>
    <tripinfo id="random_1713805184439090274" depart="41.00" departLane="-5333_1" departPos="1.57" departSpeed="0.00" departDelay="0.00" arrival="42.00" arrivalLane="-5333_1" arrivalPos="1.57" arrivalSpeed="1.62" duration="1.00" routeLength="0.00" waitingTime="0.00" waitingCount="0" stopTime="0.00" timeLoss="0.95" rerouteNo="0" devices="tripinfo_random_1713805184439090274" vType="vehicle.lincoln.mkz_2020" speedFactor="1.12" vaporized=""/>
    <tripinfo id="35018" depart="38.00" departLane="-5257_2" departPos="445.39" departSpeed="0.00" departDelay="-1.00" arrival="46.00" arrivalLane="-5258_2" arrivalPos="18.42" arrivalSpeed="13.60" duration="8.00" routeLength="51.24" waitingTime="0.00" waitingCount="0" stopTime="0.00" timeLoss="3.51" rerouteNo="0" devices="tripinfo_35018" vType="vehicle.audi.a2" speedFactor="1.00" vaporized=""/>
    <tripinfo id="35006" depart="3.00" departLane="-5186_1" departPos="0.00" departSpeed="0.00" departDelay="0.00" arrival="47.00" arrivalLane="-5186_1" arrivalPos="524.34" arrivalSpeed="13.57" duration="44.00" routeLength="524.34" waitingTime="1.00" waitingCount="1" stopTime="0.00" timeLoss="5.72" rerouteNo="0" devices="tripinfo_35006" vType="vehicle.audi.a2" speedFactor="1.01" vaporized=""/>
    <tripinfo id="35008" depart="4.00" departLane="-5186_1" departPos="0.00" departSpeed="0.00" departDelay="-1.00" arrival="48.00" arrivalLane="-5186_2" arrivalPos="524.34" arrivalSpeed="13.46" duration="44.00" routeLength="524.34" waitingTime="2.00" waitingCount="1" stopTime="0.00" timeLoss="6.83" rerouteNo="0" devices="tripinfo_35008" vType="vehicle.audi.a2" speedFactor="1.03" vaporized=""/>
    <tripinfo id="35019" depart="40.00" departLane="-5257_2" departPos="440.11" departSpeed="0.00" departDelay="0.00" arrival="48.00" arrivalLane="-5258_2" arrivalPos="18.42" arrivalSpeed="12.16" duration="8.00" routeLength="56.52" waitingTime="0.00" waitingCount="0" stopTime="0.00" timeLoss="2.69" rerouteNo="0" devices="tripinfo_35019" vType="vehicle.audi.a2" speedFactor="0.90" vaporized=""/>
    <tripinfo id="35061" depart="2.00" departLane="-5186_1" departPos="0.00" departSpeed="0.00" departDelay="0.00" arrival="49.00" arrivalLane="-5186_1" arrivalPos="524.34" arrivalSpeed="11.99" duration="47.00" routeLength="524.34" waitingTime="1.00" waitingCount="1" stopTime="0.00" timeLoss="6.18" rerouteNo="0" devices="tripinfo_35061" vType="vehicle.audi.a2" speedFactor="0.94" vaporized=""/>
    <tripinfo id="35012" depart="10.00" departLane="-5186_1" departPos="0.00" departSpeed="0.00" departDelay="-1.00" arrival="55.00" arrivalLane="-5186_1" arrivalPos="524.34" arrivalSpeed="12.27" duration="45.00" routeLength="524.34" waitingTime="0.00" waitingCount="0" stopTime="0.00" timeLoss="4.68" rerouteNo="0" devices="tripinfo_35012" vType="vehicle.audi.a2" speedFactor="0.94" vaporized=""/>
    <tripinfo id="35026" depart="50.00" departLane="-5257_2" departPos="441.71" departSpeed="0.00" departDelay="0.00" arrival="57.00" arrivalLane="-5258_2" arrivalPos="18.42" arrivalSpeed="14.96" duration="7.00" routeLength="54.92" waitingTime="0.00" waitingCount="0" stopTime="0.00" timeLoss="2.97" rerouteNo="0" devices="tripinfo_35026" vType="vehicle.audi.a2" speedFactor="1.15" vaporized=""/>
    <tripinfo id="35009" depart="7.00" departLane="-5186_1" departPos="0.00" departSpeed="0.00" departDelay="-1.00" arrival="59.00" arrivalLane="-5186_1" arrivalPos="524.34" arrivalSpeed="11.36" duration="52.00" routeLength="524.34" waitingTime="1.00" waitingCount="1" stopTime="0.00" timeLoss="5.86" rerouteNo="0" devices="tripinfo_35009" vType="vehicle.audi.a2" speedFactor="0.83" vaporized=""/>
    <tripinfo id="35030" depart="59.00" departLane="-5257_2" departPos="446.70" departSpeed="0.00" departDelay="-1.00" arrival="66.00" arrivalLane="-5258_2" arrivalPos="18.42" arrivalSpeed="13.85" duration="7.00" routeLength="49.93" waitingTime="0.00" waitingCount="0" stopTime="0.00" timeLoss="3.29" rerouteNo="0" devices="tripinfo_35030" vType="vehicle.audi.a2" speedFactor="1.07" vaporized=""/>
    <tripinfo id="35013" depart="18.00" departLane="-5186_1" departPos="0.00" departSpeed="0.00" departDelay="-1.00" arrival="68.00" arrivalLane="-5186_1" arrivalPos="524.34" arrivalSpeed="11.05" duration="50.00" routeLength="524.34" waitingTime="0.00" waitingCount="0" stopTime="0.00" timeLoss="5.35" rerouteNo="0" devices="tripinfo_35013" vType="vehicle.audi.a2" speedFactor="0.86" vaporized=""/>
    <tripinfo id="random_1713805174516964362" depart="25.00" departLane="-5120_1" departPos="3.95" departSpeed="0.00" departDelay="0.00" arrival="71.00" arrivalLane="-5304_0" arrivalPos="94.44" arrivalSpeed="24.79" duration="46.00" routeLength="584.98" waitingTime="0.00" waitingCount="0" stopTime="0.00" timeLoss="7.46" rerouteNo="0" devices="tripinfo_random_1713805174516964362" vType="vehicle.audi.tt" speedFactor="0.99" vaporized=""/>
    <tripinfo id="random_1713805180720759992" depart="35.00" departLane="-4962_1" departPos="3.91" departSpeed="0.00" departDelay="0.00" arrival="72.00" arrivalLane="-4957_1" arrivalPos="190.84" arrivalSpeed="11.97" duration="37.00" routeLength="393.52" waitingTime="0.00" waitingCount="0" stopTime="0.00" timeLoss="4.34" rerouteNo="0" devices="tripinfo_random_1713805180720759992" vType="vehicle.mini.cooper_s" speedFactor="0.88" vaporized=""/>
    <tripinfo id="35032" depart="65.00" departLane="-5257_2" departPos="444.67" departSpeed="0.00" departDelay="-1.00" arrival="72.00" arrivalLane="-5258_2" arrivalPos="18.42" arrivalSpeed="14.04" duration="7.00" routeLength="51.96" waitingTime="0.00" waitingCount="0" stopTime="0.00" timeLoss="3.37" rerouteNo="0" devices="tripinfo_35032" vType="vehicle.audi.a2" speedFactor="1.07" vaporized=""/>
    <tripinfo id="35015" depart="34.00" departLane="-5186_1" departPos="0.00" departSpeed="0.00" departDelay="-1.00" arrival="79.00" arrivalLane="-5186_1" arrivalPos="524.34" arrivalSpeed="12.93" duration="45.00" routeLength="524.34" waitingTime="0.00" waitingCount="0" stopTime="0.00" timeLoss="5.00" rerouteNo="0" devices="tripinfo_35015" vType="vehicle.audi.a2" speedFactor="0.96" vaporized=""/>
    <tripinfo id="random_1713805190644203649" depart="52.00" departLane="-5014_1" departPos="2.14" departSpeed="0.00" departDelay="0.00" arrival="79.00" arrivalLane="-5354_1" arrivalPos="224.51" arrivalSpeed="22.01" duration="27.00" routeLength="398.43" waitingTime="0.00" waitingCount="0" stopTime="0.00" timeLoss="4.14" rerouteNo="0" devices="tripinfo_random_1713805190644203649" vType="vehicle.kawasaki.ninja" speedFactor="0.89" vaporized=""/>
    <tripinfo id="random_1713805180718555866" depart="35.00" departLane="-5192_1" departPos="3.97" departSpeed="0.00" departDelay="0.00" arrival="80.00" arrivalLane="-4851_0" arrivalPos="10.81" arrivalSpeed="14.60" duration="45.00" routeLength="663.99" waitingTime="0.00" waitingCount="0" stopTime="0.00" timeLoss="13.81" rerouteNo="0" devices="tripinfo_random_1713805180718555866" vType="vehicle.jeep.wrangler_rubicon" speedFactor="1.09" vaporized=""/>
    <tripinfo id="0" depart="3.00" departLane="-5134_1" departPos="3.81" departSpeed="0.00" departDelay="0.00" arrival="83.00" arrivalLane="-5287_1" arrivalPos="41.07" arrivalSpeed="14.18" duration="80.00" routeLength="1069.51" waitingTime="0.00" waitingCount="0" stopTime="0.00" timeLoss="6.70" rerouteNo="0" devices="tripinfo_0" vType="vehicle.audi.a2" speedFactor="1.06" vaporized=""/>
    <tripinfo id="35017" depart="35.00" departLane="-5186_1" departPos="0.00" departSpeed="0.00" departDelay="-1.00" arrival="84.00" arrivalLane="-5186_1" arrivalPos="524.34" arrivalSpeed="11.99" duration="49.00" routeLength="524.34" waitingTime="2.00" waitingCount="1" stopTime="0.00" timeLoss="6.98" rerouteNo="0" devices="tripinfo_35017" vType="vehicle.audi.a2" speedFactor="0.90" vaporized=""/>
    <tripinfo id="35020" depart="42.00" departLane="-5186_1" departPos="0.00" departSpeed="0.00" departDelay="0.00" arrival="86.00" arrivalLane="-5186_1" arrivalPos="524.34" arrivalSpeed="14.06" duration="44.00" routeLength="524.34" waitingTime="0.00" waitingCount="0" stopTime="0.00" timeLoss="6.28" rerouteNo="0" devices="tripinfo_35020" vType="vehicle.audi.a2" speedFactor="1.02" vaporized=""/>
    <tripinfo id="35016" depart="37.00" departLane="-5186_1" departPos="0.00" departSpeed="0.00" departDelay="0.00" arrival="87.00" arrivalLane="-5186_2" arrivalPos="524.34" arrivalSpeed="11.07" duration="50.00" routeLength="524.34" waitingTime="1.00" waitingCount="1" stopTime="0.00" timeLoss="5.78" rerouteNo="0" devices="tripinfo_35016" vType="vehicle.audi.a2" speedFactor="0.85" vaporized=""/>
    <tripinfo id="random_1713805196843790280" depart="61.00" departLane="-5269_0" departPos="2.14" departSpeed="0.00" departDelay="0.00" arrival="87.00" arrivalLane="-5110_0" arrivalPos="0.20" arrivalSpeed="4.94" duration="26.00" routeLength="337.36" waitingTime="0.00" waitingCount="0" stopTime="0.00" timeLoss="10.12" rerouteNo="0" devices="tripinfo_random_1713805196843790280" vType="vehicle.kawasaki.ninja" speedFactor="0.93" vaporized=""/>
    <tripinfo id="35022" depart="44.00" departLane="-5186_1" departPos="0.00" departSpeed="0.00" departDelay="-1.00" arrival="88.00" arrivalLane="-5186_1" arrivalPos="524.34" arrivalSpeed="14.05" duration="44.00" routeLength="524.34" waitingTime="1.00" waitingCount="1" stopTime="0.00" timeLoss="6.80" rerouteNo="0" devices="tripinfo_35022" vType="vehicle.audi.a2" speedFactor="1.04" vaporized=""/>
    <tripinfo id="35023" depart="45.00" departLane="-5186_1" departPos="0.00" departSpeed="0.00" departDelay="-1.00" arrival="89.00" arrivalLane="-5186_2" arrivalPos="524.34" arrivalSpeed="13.29" duration="44.00" routeLength="524.34" waitingTime="2.00" waitingCount="1" stopTime="0.00" timeLoss="6.94" rerouteNo="0" devices="tripinfo_35023" vType="vehicle.audi.a2" speedFactor="1.02" vaporized=""/>
    <tripinfo id="35021" depart="43.00" departLane="-5186_1" departPos="0.00" departSpeed="0.00" departDelay="-1.00" arrival="91.00" arrivalLane="-5186_1" arrivalPos="524.34" arrivalSpeed="12.34" duration="48.00" routeLength="524.34" waitingTime="1.00" waitingCount="1" stopTime="0.00" timeLoss="5.87" rerouteNo="0" devices="tripinfo_35021" vType="vehicle.audi.a2" speedFactor="0.91" vaporized=""/>
    <tripinfo id="35025" depart="48.00" departLane="-5186_1" departPos="0.00" departSpeed="0.00" departDelay="-1.00" arrival="91.00" arrivalLane="-5186_2" arrivalPos="524.34" arrivalSpeed="14.53" duration="43.00" routeLength="524.34" waitingTime="2.00" waitingCount="1" stopTime="0.00" timeLoss="7.63" rerouteNo="0" devices="tripinfo_35025" vType="vehicle.audi.a2" speedFactor="1.09" vaporized=""/>
    <tripinfo id="35024" depart="46.00" departLane="-5186_1" departPos="0.00" departSpeed="0.00" departDelay="-1.00" arrival="93.00" arrivalLane="-5186_1" arrivalPos="524.34" arrivalSpeed="12.10" duration="47.00" routeLength="524.34" waitingTime="1.00" waitingCount="1" stopTime="0.00" timeLoss="6.78" rerouteNo="0" devices="tripinfo_35024" vType="vehicle.audi.a2" speedFactor="0.96" vaporized=""/>
    <tripinfo id="35027" depart="51.00" departLane="-5186_1" departPos="0.00" departSpeed="0.00" departDelay="-1.00" arrival="94.00" arrivalLane="-5186_2" arrivalPos="524.34" arrivalSpeed="13.33" duration="43.00" routeLength="524.34" waitingTime="0.00" waitingCount="0" stopTime="0.00" timeLoss="5.79" rerouteNo="0" devices="tripinfo_35027" vType="vehicle.audi.a2" speedFactor="1.02" vaporized=""/>
    <tripinfo id="random_1713805189401985030" depart="49.00" departLane="-4691_1" departPos="6.02" departSpeed="0.00" departDelay="0.00" arrival="97.00" arrivalLane="-4819_1" arrivalPos="8.88" arrivalSpeed="9.66" duration="48.00" routeLength="513.81" waitingTime="0.00" waitingCount="0" stopTime="0.00" timeLoss="9.98" rerouteNo="0" devices="tripinfo_random_1713805189401985030" vType="vehicle.mercedes.sprinter" speedFactor="0.97" vaporized=""/>
    <tripinfo id="35028" depart="57.00" departLane="-5186_1" departPos="0.00" departSpeed="0.00" departDelay="-1.00" arrival="98.00" arrivalLane="-5186_1" arrivalPos="524.34" arrivalSpeed="14.17" duration="41.00" routeLength="524.34" waitingTime="0.00" waitingCount="0" stopTime="0.00" timeLoss="5.07" rerouteNo="0" devices="tripinfo_35028" vType="vehicle.audi.a2" speedFactor="1.07" vaporized=""/>
    <tripinfo id="35031" depart="64.00" departLane="-5186_1" departPos="0.00" departSpeed="0.00" departDelay="-1.00" arrival="102.00" arrivalLane="-5186_2" arrivalPos="524.34" arrivalSpeed="15.07" duration="38.00" routeLength="524.34" waitingTime="0.00" waitingCount="0" stopTime="0.00" timeLoss="5.40" rerouteNo="0" devices="tripinfo_35031" vType="vehicle.audi.a2" speedFactor="1.18" vaporized=""/>
    <tripinfo id="35029" depart="58.00" departLane="-5186_1" departPos="0.00" departSpeed="0.00" departDelay="-1.00" arrival="104.00" arrivalLane="-5186_1" arrivalPos="524.34" arrivalSpeed="12.98" duration="46.00" routeLength="524.34" waitingTime="1.00" waitingCount="1" stopTime="0.00" timeLoss="5.99" rerouteNo="0" devices="tripinfo_35029" vType="vehicle.audi.a2" speedFactor="0.95" vaporized=""/>
    <tripinfo id="random_1713805217312274815" depart="95.00" departLane="-4780_1" departPos="0.20" departSpeed="0.00" departDelay="0.00" arrival="107.00" arrivalLane="-5349_2" arrivalPos="10.70" arrivalSpeed="9.01" duration="12.00" routeLength="76.93" waitingTime="0.00" waitingCount="0" stopTime="0.00" timeLoss="3.88" rerouteNo="0" devices="tripinfo_random_1713805217312274815" vType="vehicle.lincoln.mkz_2017" speedFactor="0.84" vaporized=""/>
    <tripinfo id="random_1713805177000418560" depart="29.00" departLane="-4986_1" departPos="4.61" departSpeed="0.00" departDelay="0.00" arrival="109.00" arrivalLane="-4903_1" arrivalPos="70.37" arrivalSpeed="7.77" duration="80.00" routeLength="963.44" waitingTime="0.00" waitingCount="0" stopTime="0.00" timeLoss="13.59" rerouteNo="0" devices="tripinfo_random_1713805177000418560" vType="vehicle.toyota.prius" speedFactor="0.95" vaporized=""/>
    <tripinfo id="35033" depart="66.00" departLane="-5186_1" departPos="0.00" departSpeed="0.00" departDelay="-1.00" arrival="109.00" arrivalLane="-5186_1" arrivalPos="524.34" arrivalSpeed="13.82" duration="43.00" routeLength="524.34" waitingTime="1.00" waitingCount="1" stopTime="0.00" timeLoss="5.80" rerouteNo="0" devices="tripinfo_35033" vType="vehicle.audi.a2" speedFactor="1.03" vaporized=""/>
    <tripinfo id="35034" depart="70.00" departLane="-5186_1" departPos="0.00" departSpeed="0.00" departDelay="0.00" arrival="114.00" arrivalLane="-5186_1" arrivalPos="524.34" arrivalSpeed="13.00" duration="44.00" routeLength="524.34" waitingTime="0.00" waitingCount="0" stopTime="0.00" timeLoss="4.60" rerouteNo="0" devices="tripinfo_35034" vType="vehicle.audi.a2" speedFactor="0.96" vaporized=""/>
    <tripinfo id="random_1713805177618672328" depart="30.00" departLane="-4816_1" departPos="4.77" departSpeed="0.00" departDelay="0.00" arrival="115.00" arrivalLane="-4960_1" arrivalPos="154.92" arrivalSpeed="16.03" duration="85.00" routeLength="1030.58" waitingTime="0.00" waitingCount="0" stopTime="0.00" timeLoss="19.65" rerouteNo="0" devices="tripinfo_random_1713805177618672328" vType="vehicle.mercedes.coupe_2020" speedFactor="1.18" vaporized=""/>
    <tripinfo id="random_1713805178858224758" depart="32.00" departLane="-4699_1" departPos="1.30" departSpeed="0.00" departDelay="0.00" arrival="118.00" arrivalLane="-5246_1" arrivalPos="86.44" arrivalSpeed="23.14" duration="86.00" routeLength="846.23" waitingTime="0.00" waitingCount="0" stopTime="0.00" timeLoss="24.85" rerouteNo="0" devices="tripinfo_random_1713805178858224758" vType="vehicle.carlamotors.carlacola" speedFactor="1.05" vaporized=""/>
    <tripinfo id="random_1713805199325797709" depart="66.00" departLane="-4586_1" departPos="6.20" departSpeed="0.00" departDelay="1.00" arrival="118.00" arrivalLane="-4988_0" arrivalPos="4.50" arrivalSpeed="21.24" duration="52.00" routeLength="803.53" waitingTime="0.00" waitingCount="0" stopTime="0.00" timeLoss="11.27" rerouteNo="0" devices="tripinfo_random_1713805199325797709" vType="DEFAULT_CONTAINERTYPE" speedFactor="1.00" vaporized=""/>
    <tripinfo id="random_1713805211729420856" depart="86.00" departLane="-4793_0" departPos="0.20" departSpeed="0.00" departDelay="1.00" arrival="122.00" arrivalLane="-5066_1" arrivalPos="77.20" arrivalSpeed="14.17" duration="36.00" routeLength="412.10" waitingTime="0.00" waitingCount="0" stopTime="0.00" timeLoss="5.58" rerouteNo="0" devices="tripinfo_random_1713805211729420856" vType="vehicle.mini.cooper_s_2021" speedFactor="1.07" vaporized=""/>
    <tripinfo id="random_1713805183820749792" depart="40.00" departLane="-5314_1" departPos="0.11" departSpeed="0.00" departDelay="0.00" arrival="124.00" arrivalLane="-5328_1" arrivalPos="11.52" arrivalSpeed="11.82" duration="84.00" routeLength="961.79" waitingTime="0.00" waitingCount="0" stopTime="0.00" timeLoss="27.88" rerouteNo="0" devices="tripinfo_random_1713805183820749792" vType="vehicle.nissan.patrol_2021" speedFactor="0.97" vaporized=""/>
    <tripinfo id="random_1713805181961010300" depart="38.00" departLane="-5145_1" departPos="5.10" departSpeed="0.00" departDelay="0.00" arrival="125.00" arrivalLane="-4839_0" arrivalPos="169.90" arrivalSpeed="22.62" duration="87.00" routeLength="961.91" waitingTime="7.00" waitingCount="1" stopTime="0.00" timeLoss="29.56" rerouteNo="0" devices="tripinfo_random_1713805181961010300" vType="DEFAULT_TAXITYPE" speedFactor="1.05" vaporized=""/>
    <tripinfo id="random_1713805191264740687" depart="53.00" departLane="-4555_1" departPos="2.14" departSpeed="0.00" departDelay="0.00" arrival="127.00" arrivalLane="-4691_1" arrivalPos="16.05" arrivalSpeed="9.97" duration="74.00" routeLength="589.84" waitingTime="1.00" waitingCount="1" stopTime="0.00" timeLoss="18.57" rerouteNo="0" devices="tripinfo_random_1713805191264740687" vType="vehicle.kawasaki.ninja" speedFactor="0.83" vaporized=""/>
    <tripinfo id="random_1713805180721310079" depart="36.00" departLane="-5141_1" departPos="0.20" departSpeed="0.00" departDelay="0.00" arrival="129.00" arrivalLane="-4927_0" arrivalPos="552.08" arrivalSpeed="23.44" duration="93.00" routeLength="1479.20" waitingTime="0.00" waitingCount="0" stopTime="0.00" timeLoss="19.59" rerouteNo="0" devices="tripinfo_random_1713805180721310079" vType="vehicle.nissan.patrol" speedFactor="0.85" vaporized=""/>
    <tripinfo id="random_1713805204910208196" depart="75.00" departLane="-5316_0" departPos="0.20" departSpeed="0.00" departDelay="0.00" arrival="130.00" arrivalLane="-4888_1" arrivalPos="0.20" arrivalSpeed="6.34" duration="55.00" routeLength="431.27" waitingTime="0.00" waitingCount="0" stopTime="0.00" timeLoss="20.64" rerouteNo="0" devices="tripinfo_random_1713805204910208196" vType="vehicle.carlamotors.european_hgv" speedFactor="0.91" vaporized=""/>
    <tripinfo id="random_1713805217310108561" depart="94.00" departLane="-4701_1" departPos="6.20" departSpeed="0.00" departDelay="0.00" arrival="134.00" arrivalLane="-4694_1" arrivalPos="74.74" arrivalSpeed="12.96" duration="40.00" routeLength="361.51" waitingTime="0.00" waitingCount="0" stopTime="0.00" timeLoss="9.12" rerouteNo="0" devices="tripinfo_random_1713805217310108561" vType="DEFAULT_CONTAINERTYPE" speedFactor="1.00" vaporized=""/>
    <tripinfo id="random_1713805206149778702" depart="76.00" departLane="-5356_0" departPos="2.29" departSpeed="0.00" departDelay="0.00" arrival="135.00" arrivalLane="-5231_0" arrivalPos="59.96" arrivalSpeed="28.10" duration="59.00" routeLength="1072.01" waitingTime="0.00" waitingCount="0" stopTime="0.00" timeLoss="6.74" rerouteNo="0" devices="tripinfo_random_1713805206149778702" vType="vehicle.yamaha.yzf" speedFactor="1.05" vaporized=""/>
    <tripinfo id="random_1713805214829621311" depart="90.00" departLane="-4575_1" departPos="6.47" departSpeed="0.00" departDelay="0.00" arrival="136.00" arrivalLane="-4877_1" arrivalPos="88.22" arrivalSpeed="7.70" duration="46.00" routeLength="413.04" waitingTime="0.00" waitingCount="0" stopTime="0.00" timeLoss="8.22" rerouteNo="0" devices="tripinfo_random_1713805214829621311" vType="vehicle.ford.ambulance" speedFactor="0.98" vaporized=""/>
    <tripinfo id="random_1713805178240773026" depart="31.00" departLane="-5295_1" departPos="3.81" departSpeed="0.00" departDelay="0.00" arrival="139.00" arrivalLane="-4814_1" arrivalPos="77.39" arrivalSpeed="13.29" duration="108.00" routeLength="1550.01" waitingTime="3.00" waitingCount="1" stopTime="0.00" timeLoss="32.98" rerouteNo="0" devices="tripinfo_random_1713805178240773026" vType="vehicle.audi.a2" speedFactor="1.02" vaporized=""/>
    <tripinfo id="random_1713805185058811681" depart="42.00" departLane="-5005_1" departPos="2.14" departSpeed="0.00" departDelay="0.00" arrival="141.00" arrivalLane="-4788_1" arrivalPos="0.20" arrivalSpeed="3.58" duration="99.00" routeLength="850.32" waitingTime="0.00" waitingCount="0" stopTime="0.00" timeLoss="27.46" rerouteNo="0" devices="tripinfo_random_1713805185058811681" vType="vehicle.kawasaki.ninja" speedFactor="0.94" vaporized=""/>
    <tripinfo id="random_1713805206767330903" depart="77.00" departLane="-4699_1" departPos="1.30" departSpeed="0.00" departDelay="0.00" arrival="143.00" arrivalLane="-5349_2" arrivalPos="10.70" arrivalSpeed="11.21" duration="66.00" routeLength="620.27" waitingTime="1.00" waitingCount="1" stopTime="0.00" timeLoss="20.56" rerouteNo="0" devices="tripinfo_random_1713805206767330903" vType="vehicle.tesla.cybertruck" speedFactor="1.00" vaporized=""/>
    <tripinfo id="random_1713805190021680206" depart="50.00" departLane="-5257_1" departPos="4.71" departSpeed="0.00" departDelay="0.00" arrival="147.00" arrivalLane="-5006_1" arrivalPos="15.12" arrivalSpeed="4.54" duration="97.00" routeLength="1012.21" waitingTime="9.00" waitingCount="1" stopTime="0.00" timeLoss="24.32" rerouteNo="0" devices="tripinfo_random_1713805190021680206" vType="vehicle.bmw.grandtourer" speedFactor="1.00" vaporized=""/>
    <tripinfo id="random_1713805221032387752" depart="101.00" departLane="-4629_1" departPos="4.99" departSpeed="0.00" departDelay="0.00" arrival="148.00" arrivalLane="-5177_1" arrivalPos="0.20" arrivalSpeed="8.35" duration="47.00" routeLength="332.72" waitingTime="4.00" waitingCount="2" stopTime="0.00" timeLoss="19.31" rerouteNo="0" devices="tripinfo_random_1713805221032387752" vType="vehicle.lincoln.mkz_2020" speedFactor="0.88" vaporized=""/>
    <tripinfo id="random_1713805198086389750" depart="63.00" departLane="-4791_1" departPos="1.67" departSpeed="0.00" departDelay="0.00" arrival="151.00" arrivalLane="-5264_1" arrivalPos="70.13" arrivalSpeed="20.00" duration="88.00" routeLength="1029.70" waitingTime="0.00" waitingCount="0" stopTime="0.00" timeLoss="23.33" rerouteNo="0" devices="tripinfo_random_1713805198086389750" vType="vehicle.chevrolet.impala" speedFactor="0.92" vaporized=""/>
    <tripinfo id="random_1713805212348710385" depart="86.00" departLane="-4581_1" departPos="3.97" departSpeed="0.00" departDelay="0.00" arrival="151.00" arrivalLane="-5173_0" arrivalPos="0.20" arrivalSpeed="9.28" duration="65.00" routeLength="231.89" waitingTime="24.00" waitingCount="2" stopTime="0.00" timeLoss="41.44" rerouteNo="0" devices="tripinfo_random_1713805212348710385" vType="vehicle.jeep.wrangler_rubicon" speedFactor="0.87" vaporized=""/>
    <tripinfo id="random_1713805233493610672" depart="124.00" departLane="-4791_1" departPos="1.67" departSpeed="0.00" departDelay="0.00" arrival="155.00" arrivalLane="-5119_1" arrivalPos="206.02" arrivalSpeed="13.63" duration="31.00" routeLength="438.05" waitingTime="0.00" waitingCount="0" stopTime="0.00" timeLoss="8.43" rerouteNo="0" devices="tripinfo_random_1713805233493610672" vType="vehicle.seat.leon" speedFactor="1.05" vaporized=""/>
    <tripinfo id="random_1713805200563572029" depart="67.00" departLane="-4856_1" departPos="2.90" departSpeed="0.00" departDelay="0.00" arrival="161.00" arrivalLane="-5113_1" arrivalPos="0.20" arrivalSpeed="10.28" duration="94.00" routeLength="1295.38" waitingTime="0.00" waitingCount="0" stopTime="0.00" timeLoss="29.22" rerouteNo="0" devices="tripinfo_random_1713805200563572029" vType="vehicle.bmw.grandtourer" speedFactor="1.03" vaporized=""/>
    <tripinfo id="random_1713805186300402737" depart="44.00" departLane="-4623_1" departPos="2.29" departSpeed="0.00" departDelay="0.00" arrival="162.00" arrivalLane="-4935_2" arrivalPos="59.42" arrivalSpeed="12.31" duration="118.00" routeLength="882.06" waitingTime="0.00" waitingCount="0" stopTime="0.00" timeLoss="33.93" rerouteNo="0" devices="tripinfo_random_1713805186300402737" vType="vehicle.yamaha.yzf" speedFactor="0.91" vaporized=""/>
    <tripinfo id="random_1713805202431632326" depart="71.00" departLane="-5021_1" departPos="4.77" departSpeed="0.00" departDelay="1.00" arrival="163.00" arrivalLane="-4907_1" arrivalPos="150.18" arrivalSpeed="27.21" duration="92.00" routeLength="1644.21" waitingTime="0.00" waitingCount="0" stopTime="0.00" timeLoss="27.88" rerouteNo="0" devices="tripinfo_random_1713805202431632326" vType="vehicle.mercedes.coupe_2020" speedFactor="1.00" vaporized=""/>
    <tripinfo id="random_1713805235950480424" depart="131.00" departLane="-5097_1" departPos="4.99" departSpeed="0.00" departDelay="0.00" arrival="164.00" arrivalLane="-4811_1" arrivalPos="47.34" arrivalSpeed="12.51" duration="33.00" routeLength="352.86" waitingTime="0.00" waitingCount="0" stopTime="0.00" timeLoss="5.38" rerouteNo="0" devices="tripinfo_random_1713805235950480424" vType="vehicle.lincoln.mkz_2020" speedFactor="0.96" vaporized=""/>
    <tripinfo id="random_1713805179478288361" depart="34.00" departLane="-5097_1" departPos="6.02" departSpeed="0.00" departDelay="0.00" arrival="165.00" arrivalLane="-4734_1" arrivalPos="2.68" arrivalSpeed="8.32" duration="131.00" routeLength="1256.64" waitingTime="1.00" waitingCount="1" stopTime="0.00" timeLoss="41.37" rerouteNo="0" devices="tripinfo_random_1713805179478288361" vType="vehicle.mercedes.sprinter" speedFactor="1.03" vaporized=""/>
    <tripinfo id="random_1713805231519865275" depart="117.00" departLane="-4981_1" departPos="3.97" departSpeed="0.00" departDelay="0.00" arrival="165.00" arrivalLane="-5162_1" arrivalPos="31.26" arrivalSpeed="10.62" duration="48.00" routeLength="423.95" waitingTime="2.00" waitingCount="1" stopTime="0.00" timeLoss="18.86" rerouteNo="0" devices="tripinfo_random_1713805231519865275" vType="vehicle.jeep.wrangler_rubicon" speedFactor="1.19" vaporized=""/>
    <tripinfo id="random_1713805204909049491" depart="74.00" departLane="-4880_1" departPos="4.70" departSpeed="0.00" departDelay="0.00" arrival="166.00" arrivalLane="-5182_1" arrivalPos="166.39" arrivalSpeed="22.94" duration="92.00" routeLength="954.51" waitingTime="5.00" waitingCount="1" stopTime="0.00" timeLoss="49.04" rerouteNo="0" devices="tripinfo_random_1713805204909049491" vType="vehicle.nissan.patrol" speedFactor="1.08" vaporized=""/>