<?xml version="1.0" encoding="UTF-8"?>

<!-- generated on 2024-05-02 04:51:57 by Eclipse SUMO GUI Version 1.12.0
<configuration xmlns:xsi="http://www.w3.org/2001/XMLSchema-instance" xsi:noNamespaceSchemaLocation="http://sumo.dlr.de/xsd/sumoConfiguration.xsd">

    <input>
        <net-file value="../Adapters/co_simulation/sumo_configuration/simple-map/UA.net.xml"/>
        <route-files value="../Adapters/co_simulation/sumo_configuration/simple-map/carlavtypes.rou.xml,../Adapters/co_simulation/sumo_configuration/simple-map/simple-map.rou.xml"/>
    </input>

    <output>
        <tripinfo-output value="tripinfo.xml"/>
    </output>

    <traci_server>
        <remote-port value="44541"/>
        <num-clients value="1"/>
    </traci_server>

    <gui_only>
        <gui-settings-file value="../Adapters/co_simulation/sumo_configuration/simple-map/simple-map.view.xml"/>
    </gui_only>

</configuration>
-->

<tripinfos xmlns:xsi="http://www.w3.org/2001/XMLSchema-instance" xsi:noNamespaceSchemaLocation="http://sumo.dlr.de/xsd/tripinfo_file.xsd">
    <tripinfo id="0" depart="3.00" departLane="-1466_1" departPos="5.34" departSpeed="0.00" departDelay="0.00" arrival="12.00" arrivalLane="-1465_1" arrivalPos="11.38" arrivalSpeed="13.75" duration="9.00" routeLength="73.18" waitingTime="0.00" waitingCount="0" stopTime="0.00" timeLoss="3.49" rerouteNo="0" devices="tripinfo_0" vType="vehicle.dodge.charger_police_2020" speedFactor="1.06" vaporized=""/>
    <tripinfo id="random_1714621929393664484" depart="19.00" departLane="-1497_1" departPos="1.67" departSpeed="0.00" departDelay="0.00" arrival="26.00" arrivalLane="-1490_1" arrivalPos="2.06" arrivalSpeed="6.43" duration="7.00" routeLength="25.38" waitingTime="0.00" waitingCount="0" stopTime="0.00" timeLoss="4.17" rerouteNo="0" devices="tripinfo_random_1714621929393664484" vType="vehicle.chevrolet.impala" speedFactor="0.94" vaporized=""/>
    <tripinfo id="random_1714621935600888426" depart="30.00" departLane="-1501_0" departPos="0.20" departSpeed="0.00" departDelay="2.00" arrival="40.00" arrivalLane="-1497_1" arrivalPos="1.67" arrivalSpeed="4.70" duration="10.00" routeLength="46.59" waitingTime="0.00" waitingCount="0" stopTime="0.00" timeLoss="3.47" rerouteNo="0" devices="tripinfo_random_1714621935600888426" vType="vehicle.mitsubishi.fusorosa" speedFactor="0.95" vaporized=""/>
    <tripinfo id="random_1714621939947171836" depart="35.00" departLane="-1589_1" departPos="4.96" departSpeed="0.00" departDelay="0.00" arrival="44.00" arrivalLane="-1539_1" arrivalPos="6.96" arrivalSpeed="10.34" duration="9.00" routeLength="54.26" waitingTime="0.00" waitingCount="0" stopTime="0.00" timeLoss="3.86" rerouteNo="0" devices="tripinfo_random_1714621939947171836" vType="vehicle.audi.etron" speedFactor="0.90" vaporized=""/>
    <tripinfo id="random_1714621929392826884" depart="18.00" departLane="-1578_1" departPos="0.10" departSpeed="0.00" departDelay="0.00" arrival="45.00" arrivalLane="-1595_1" arrivalPos="20.58" arrivalSpeed="11.94" duration="27.00" routeLength="242.89" waitingTime="0.00" waitingCount="0" stopTime="0.00" timeLoss="8.28" rerouteNo="0" devices="tripinfo_random_1714621929392826884" vType="vehicle.mini.cooper_s_2021" speedFactor="0.89" vaporized=""/>
    <tripinfo id="random_1714621929391215884" depart="18.00" departLane="-1612_1" departPos="2.31" departSpeed="0.00" departDelay="0.00" arrival="62.00" arrivalLane="-1504_1" arrivalPos="37.65" arrivalSpeed="10.62" duration="44.00" routeLength="369.57" waitingTime="0.00" waitingCount="0" stopTime="0.00" timeLoss="8.68" rerouteNo="0" devices="tripinfo_random_1714621929391215884" vType="vehicle.micro.microlino" speedFactor="0.83" vaporized=""/>
    <tripinfo id="random_1714621951104178938" depart="53.00" departLane="-1519_1" departPos="5.30" departSpeed="0.00" departDelay="0.00" arrival="62.00" arrivalLane="-1520_1" arrivalPos="46.66" arrivalSpeed="10.53" duration="9.00" routeLength="50.84" waitingTime="0.00" waitingCount="0" stopTime="0.00" timeLoss="5.15" rerouteNo="0" devices="tripinfo_random_1714621951104178938" vType="vehicle.carlamotors.carlacola" speedFactor="0.97" vaporized=""/>
    <tripinfo id="random_1714621951105008538" depart="53.00" departLane="-1632_1" departPos="1.61" departSpeed="0.00" departDelay="0.00" arrival="63.00" arrivalLane="-1632_1" arrivalPos="41.07" arrivalSpeed="4.98" duration="10.00" routeLength="39.46" waitingTime="0.00" waitingCount="0" stopTime="0.00" timeLoss="2.32" rerouteNo="0" devices="tripinfo_random_1714621951105008538" vType="vehicle.bh.crossbike" speedFactor="1.13" vaporized=""/>
    <tripinfo id="random_1714621951101552139" depart="53.00" departLane="-1536_1" departPos="1.92" departSpeed="0.00" departDelay="0.00" arrival="69.00" arrivalLane="-1455_1" arrivalPos="3.16" arrivalSpeed="9.45" duration="16.00" routeLength="184.61" waitingTime="0.00" waitingCount="0" stopTime="0.00" timeLoss="5.66" rerouteNo="0" devices="tripinfo_random_1714621951101552139" vType="vehicle.vespa.zx125" speedFactor="0.95" vaporized=""/>
    <tripinfo id="random_1714621940560669851" depart="36.00" departLane="-1663_1" departPos="4.99" departSpeed="0.00" departDelay="0.00" arrival="73.00" arrivalLane="-1560_1" arrivalPos="211.16" arrivalSpeed="11.01" duration="37.00" routeLength="364.71" waitingTime="0.00" waitingCount="0" stopTime="0.00" timeLoss="5.91" rerouteNo="0" devices="tripinfo_random_1714621940560669851" vType="vehicle.lincoln.mkz_2020" speedFactor="0.88" vaporized=""/>
    <tripinfo id="random_1714621944915828317" depart="43.00" departLane="-1433_1" departPos="2.29" departSpeed="0.00" departDelay="0.00" arrival="79.00" arrivalLane="-1604_1" arrivalPos="6.26" arrivalSpeed="9.29" duration="36.00" routeLength="289.80" waitingTime="1.00" waitingCount="1" stopTime="0.00" timeLoss="15.53" rerouteNo="0" devices="tripinfo_random_1714621944915828317" vType="vehicle.yamaha.yzf" speedFactor="1.03" vaporized=""/>
    <tripinfo id="random_1714621928150649735" depart="16.00" departLane="-1616_2" departPos="4.65" departSpeed="0.00" departDelay="0.00" arrival="83.00" arrivalLane="-1617_2" arrivalPos="77.10" arrivalSpeed="0.00" duration="67.00" routeLength="182.01" waitingTime="44.00" waitingCount="1" stopTime="0.00" timeLoss="49.11" rerouteNo="0" devices="tripinfo_random_1714621928150649735" vType="vehicle.mini.cooper_s_2021" speedFactor="1.06" vaporized="traci"/>
    <tripinfo id="random_1714621928155340535" depart="16.00" departLane="-1560_1" departPos="3.91" departSpeed="0.00" departDelay="0.00" arrival="83.00" arrivalLane="-1666_1" arrivalPos="7.44" arrivalSpeed="0.00" duration="67.00" routeLength="239.55" waitingTime="34.00" waitingCount="2" stopTime="0.00" timeLoss="47.16" rerouteNo="0" devices="tripinfo_random_1714621928155340535" vType="vehicle.mini.cooper_s" speedFactor="0.94" vaporized="traci"/>
    <tripinfo id="random_1714621928160286536" depart="17.00" departLane="-1529_1" departPos="4.58" departSpeed="0.00" departDelay="0.00" arrival="83.00" arrivalLane="-1624_1" arrivalPos="20.09" arrivalSpeed="12.23" duration="66.00" routeLength="564.23" waitingTime="0.00" waitingCount="0" stopTime="0.00" timeLoss="14.67" rerouteNo="0" devices="tripinfo_random_1714621928160286536" vType="vehicle.volkswagen.t2" speedFactor="1.01" vaporized="traci"/>
    <tripinfo id="random_1714621928771761060" depart="17.00" departLane="-1666_1" departPos="1.92" departSpeed="0.00" departDelay="0.00" arrival="83.00" arrivalLane="-1617_1" arrivalPos="72.75" arrivalSpeed="0.00" duration="66.00" routeLength="419.68" waitingTime="19.00" waitingCount="1" stopTime="0.00" timeLoss="29.83" rerouteNo="0" devices="tripinfo_random_1714621928771761060" vType="vehicle.vespa.zx125" speedFactor="1.08" vaporized="traci"/>
    <tripinfo id="random_1714621929388243584" depart="18.00" departLane="-1474_1" departPos="1.76" departSpeed="0.00" departDelay="0.00" arrival="83.00" arrivalLane="-1596_1" arrivalPos="60.93" arrivalSpeed="5.18" duration="65.00" routeLength="295.94" waitingTime="0.00" waitingCount="0" stopTime="0.00" timeLoss="10.73" rerouteNo="0" devices="tripinfo_random_1714621929388243584" vType="vehicle.diamondback.century" speedFactor="1.03" vaporized="traci"/>
    <tripinfo id="random_1714621929391955984" depart="18.00" departLane="-1490_1" departPos="2.06" departSpeed="0.00" departDelay="0.00" arrival="83.00" arrivalLane="-1666_1" arrivalPos="24.60" arrivalSpeed="0.00" duration="65.00" routeLength="342.45" waitingTime="33.00" waitingCount="1" stopTime="0.00" timeLoss="40.57" rerouteNo="0" devices="tripinfo_random_1714621929391955984" vType="DEFAULT_VEHTYPE" speedFactor="1.05" vaporized="traci"/>
    <tripinfo id="random_1714621930010421208" depart="19.00" departLane="-1467_1" departPos="1.94" departSpeed="0.00" departDelay="0.00" arrival="83.00" arrivalLane="-1572_1" arrivalPos="14.80" arrivalSpeed="5.03" duration="64.00" routeLength="274.29" waitingTime="5.00" waitingCount="1" stopTime="0.00" timeLoss="13.63" rerouteNo="0" devices="tripinfo_random_1714621930010421208" vType="vehicle.gazelle.omafiets" speedFactor="0.86" vaporized="traci"/>
    <tripinfo id="random_1714621930627968132" depart="20.00" departLane="-1635_2" departPos="1.92" departSpeed="0.00" departDelay="0.00" arrival="83.00" arrivalLane="-1552_2" arrivalPos="14.12" arrivalSpeed="0.00" duration="63.00" routeLength="352.58" waitingTime="32.00" waitingCount="1" stopTime="0.00" timeLoss="38.73" rerouteNo="0" devices="tripinfo_random_1714621930627968132" vType="vehicle.vespa.zx125" speedFactor="1.09" vaporized="traci"/>
    <tripinfo id="random_1714621930629780632" depart="20.00" departLane="-1585_1" departPos="4.54" departSpeed="0.00" departDelay="0.00" arrival="83.00" arrivalLane="-1585_1" arrivalPos="804.12" arrivalSpeed="13.84" duration="63.00" routeLength="799.58" waitingTime="0.00" waitingCount="0" stopTime="0.00" timeLoss="5.91" rerouteNo="0" devices="tripinfo_random_1714621930629780632" vType="vehicle.volkswagen.t2_2021" speedFactor="1.03" vaporized="traci"/>
    <tripinfo id="random_1714621930631077232" depart="21.00" departLane="-1588_1" departPos="0.20" departSpeed="0.00" departDelay="0.00" arrival="83.00" arrivalLane=":73_7_0" arrivalPos="12.30" arrivalSpeed="4.44" duration="62.00" routeLength="625.27" waitingTime="0.00" waitingCount="0" stopTime="0.00" timeLoss="31.04" rerouteNo="0" devices="tripinfo_random_1714621930631077232" vType="DEFAULT_VEHTYPE" speedFactor="1.05" vaporized="traci"/>
    <tripinfo id="random_1714621931250251956" depart="21.00" departLane="-1428_1" departPos="4.71" departSpeed="0.00" departDelay="0.00" arrival="83.00" arrivalLane="-1461_1" arrivalPos="294.24" arrivalSpeed="9.66" duration="62.00" routeLength="488.25" waitingTime="9.00" waitingCount="1" stopTime="0.00" timeLoss="28.20" rerouteNo="0" devices="tripinfo_random_1714621931250251956" vType="vehicle.bmw.grandtourer" speedFactor="1.12" vaporized="traci"/>
    <tripinfo id="random_1714621931251850956" depart="22.00" departLane="-1527_1" departPos="8.04" departSpeed="0.00" departDelay="0.00" arrival="83.00" arrivalLane="-1622_1" arrivalPos="87.55" arrivalSpeed="0.00" duration="61.00" routeLength="193.08" waitingTime="37.00" waitingCount="1" stopTime="0.00" timeLoss="45.98" rerouteNo="0" devices="tripinfo_random_1714621931251850956" vType="vehicle.carlamotors.european_hgv" speedFactor="0.99" vaporized="traci"/>
    <tripinfo id="random_1714621931870657181" depart="23.00" departLane="-1512_1" departPos="0.20" departSpeed="0.00" departDelay="0.00" arrival="83.00" arrivalLane="-1617_1" arrivalPos="68.44" arrivalSpeed="0.00" duration="60.00" routeLength="382.25" waitingTime="7.00" waitingCount="2" stopTime="0.00" timeLoss="20.18" rerouteNo="0" devices="tripinfo_random_1714621931870657181" vType="vehicle.nissan.patrol_2021" speedFactor="0.93" vaporized="traci"/>
    <tripinfo id="random_1714621932492251805" depart="23.00" departLane="-1561_1" departPos="1.09" departSpeed="0.00" departDelay="0.00" arrival="83.00" arrivalLane="-1607_1" arrivalPos="97.74" arrivalSpeed="11.85" duration="60.00" routeLength="487.23" waitingTime="0.00" waitingCount="0" stopTime="0.00" timeLoss="14.76" rerouteNo="0" devices="tripinfo_random_1714621932492251805" vType="vehicle.carlamotors.european_hgv" speedFactor="0.88" vaporized="traci"/>
    <tripinfo id="random_1714621932493562305" depart="24.00" departLane="-1541_1" departPos="0.20" departSpeed="0.00" departDelay="0.00" arrival="83.00" arrivalLane="-1467_1" arrivalPos="87.73" arrivalSpeed="4.79" duration="59.00" routeLength="634.37" waitingTime="0.00" waitingCount="0" stopTime="0.00" timeLoss="21.43" rerouteNo="0" devices="tripinfo_random_1714621932493562305" vType="vehicle.citroen.c3" speedFactor="0.94" vaporized="traci"/>
    <tripinfo id="random_1714621933113630029" depart="24.00" departLane="-1462_1" departPos="6.47" departSpeed="0.00" departDelay="0.00" arrival="83.00" arrivalLane=":3_3_1" arrivalPos="4.49" arrivalSpeed="6.59" duration="59.00" routeLength="667.94" waitingTime="0.00" waitingCount="0" stopTime="0.00" timeLoss="6.39" rerouteNo="0" devices="tripinfo_random_1714621933113630029" vType="vehicle.ford.ambulance" speedFactor="0.94" vaporized="traci"/>
    <tripinfo id="random_1714621933118776229" depart="24.00" departLane="-1551_1" departPos="5.07" departSpeed="0.00" departDelay="0.00" arrival="83.00" arrivalLane="-1585_1" arrivalPos="549.20" arrivalSpeed="13.63" duration="59.00" routeLength="660.13" waitingTime="1.00" waitingCount="1" stopTime="0.00" timeLoss="13.65" rerouteNo="0" devices="tripinfo_random_1714621933118776229" vType="vehicle.dodge.charger_police" speedFactor="1.00" vaporized="traci"/>
    <tripinfo id="random_1714621933733281753" depart="25.00" departLane="-1557_1" departPos="5.10" departSpeed="0.00" departDelay="0.00" arrival="83.00" arrivalLane="-1661_1" arrivalPos="241.84" arrivalSpeed="11.93" duration="58.00" routeLength="693.73" waitingTime="0.00" waitingCount="0" stopTime="0.00" timeLoss="13.65" rerouteNo="0" devices="tripinfo_random_1714621933733281753" vType="DEFAULT_VEHTYPE" speedFactor="1.16" vaporized="traci"/>
    <tripinfo id="random_1714621933740273154" depart="26.00" departLane="-1497_1" departPos="1.67" departSpeed="0.00" departDelay="0.00" arrival="83.00" arrivalLane="-1665_1" arrivalPos="14.61" arrivalSpeed="0.00" duration="57.00" routeLength="320.62" waitingTime="23.00" waitingCount="1" stopTime="0.00" timeLoss="32.91" rerouteNo="0" devices="tripinfo_random_1714621933740273154" vType="vehicle.kawasaki.ninja" speedFactor="1.02" vaporized="traci"/>
    <tripinfo id="random_1714621934352347878" depart="27.00" departLane="-1556_2" departPos="5.07" departSpeed="0.00" departDelay="1.00" arrival="83.00" arrivalLane="-1613_2" arrivalPos="145.02" arrivalSpeed="0.00" duration="56.00" routeLength="458.04" waitingTime="7.00" waitingCount="1" stopTime="0.00" timeLoss="21.21" rerouteNo="0" devices="tripinfo_random_1714621934352347878" vType="vehicle.dodge.charger_police" speedFactor="1.00" vaporized="traci"/>
    <tripinfo id="random_1714621934353745678" depart="27.00" departLane="-1661_1" departPos="1.92" departSpeed="0.00" departDelay="0.00" arrival="83.00" arrivalLane="-1461_1" arrivalPos="48.14" arrivalSpeed="13.27" duration="56.00" routeLength="639.67" waitingTime="0.00" waitingCount="0" stopTime="0.00" timeLoss="8.05" rerouteNo="0" devices="tripinfo_random_1714621934353745678" vType="vehicle.vespa.zx125" speedFactor="1.01" vaporized="traci"/>
    <tripinfo id="random_1714621934976280002" depart="27.00" departLane="-1521_1" departPos="0.20" departSpeed="0.00" departDelay="0.00" arrival="83.00" arrivalLane="-1617_1" arrivalPos="52.65" arrivalSpeed="0.49" duration="56.00" routeLength="366.97" waitingTime="1.00" waitingCount="1" stopTime="0.00" timeLoss="19.91" rerouteNo="0" devices="tripinfo_random_1714621934976280002" vType="vehicle.volkswagen.t2_2021" speedFactor="0.98" vaporized="traci"/>
    <tripinfo id="random_1714621934981973902" depart="28.00" departLane="-1504_1" departPos="5.11" departSpeed="0.00" departDelay="1.00" arrival="83.00" arrivalLane="-1617_1" arrivalPos="60.37" arrivalSpeed="0.02" duration="55.00" routeLength="359.87" waitingTime="2.00" waitingCount="1" stopTime="0.00" timeLoss="16.74" rerouteNo="0" devices="tripinfo_random_1714621934981973902" vType="vehicle.dodge.charger_2020" speedFactor="0.89" vaporized="traci"/>
    <tripinfo id="random_1714621934986091602" depart="27.00" departLane="-1591_1" departPos="4.09" departSpeed="0.00" departDelay="0.00" arrival="83.00" arrivalLane="-1461_1" arrivalPos="488.39" arrivalSpeed="11.23" duration="56.00" routeLength="544.22" waitingTime="0.00" waitingCount="0" stopTime="0.00" timeLoss="6.76" rerouteNo="0" devices="tripinfo_random_1714621934986091602" vType="vehicle.citroen.c3" speedFactor="0.83" vaporized="traci"/>
    <tripinfo id="random_1714621934990167403" depart="28.00" departLane="-1643_1" departPos="1.92" departSpeed="0.00" departDelay="0.00" arrival="83.00" arrivalLane="-1629_1" arrivalPos="4.83" arrivalSpeed="5.48" duration="55.00" routeLength="461.25" waitingTime="0.00" waitingCount="0" stopTime="0.00" timeLoss="12.83" rerouteNo="0" devices="tripinfo_random_1714621934990167403" vType="vehicle.vespa.zx125" speedFactor="0.87" vaporized="traci"/>
    <tripinfo id="random_1714621935595645526" depart="33.00" departLane="-1521_1" departPos="0.20" departSpeed="0.00" departDelay="5.00" arrival="83.00" arrivalLane="-1616_1" arrivalPos="88.80" arrivalSpeed="7.33" duration="50.00" routeLength="293.56" waitingTime="1.00" waitingCount="1" stopTime="0.00" timeLoss="18.65" rerouteNo="0" devices="tripinfo_random_1714621935595645526" vType="vehicle.audi.tt" speedFactor="0.92" vaporized="traci"/>
    <tripinfo id="random_1714621935604192527" depart="29.00" departLane="-1597_1" departPos="1.76" departSpeed="0.00" departDelay="0.00" arrival="83.00" arrivalLane="-1472_1" arrivalPos="54.56" arrivalSpeed="5.19" duration="54.00" routeLength="265.28" waitingTime="0.00" waitingCount="0" stopTime="0.00" timeLoss="5.25" rerouteNo="0" devices="tripinfo_random_1714621935604192527" vType="vehicle.diamondback.century" speedFactor="1.13" vaporized="traci"/>
    <tripinfo id="random_1714621936216429745" depart="29.00" departLane="-1623_1" departPos="4.54" departSpeed="0.00" departDelay="0.00" arrival="83.00" arrivalLane="-1509_1" arrivalPos="86.92" arrivalSpeed="6.46" duration="54.00" routeLength="440.98" waitingTime="7.00" waitingCount="1" stopTime="0.00" timeLoss="19.41" rerouteNo="0" devices="tripinfo_random_1714621936216429745" vType="vehicle.volkswagen.t2_2021" speedFactor="0.93" vaporized="traci"/>
    <tripinfo id="random_1714621936221230045" depart="29.00" departLane="-1640_0" departPos="4.82" departSpeed="0.00" departDelay="0.00" arrival="83.00" arrivalLane="-1622_2" arrivalPos="80.86" arrivalSpeed="0.00" duration="54.00" routeLength="302.45" waitingTime="22.00" waitingCount="1" stopTime="0.00" timeLoss="37.47" rerouteNo="0" devices="tripinfo_random_1714621936221230045" vType="vehicle.ford.mustang" speedFactor="1.18" vaporized="traci"/>
    <tripinfo id="random_1714621936222376845" depart="29.00" departLane="-1533_1" departPos="4.29" departSpeed="0.00" departDelay="0.00" arrival="83.00" arrivalLane="-1622_2" arrivalPos="87.55" arrivalSpeed="0.00" duration="54.00" routeLength="290.88" waitingTime="25.00" waitingCount="1" stopTime="0.00" timeLoss="34.41" rerouteNo="0" devices="tripinfo_random_1714621936222376845" vType="vehicle.seat.leon" speedFactor="1.15" vaporized="traci"/>
    <tripinfo id="random_1714621936223296045" depart="29.00" departLane="-1655_1" departPos="0.20" departSpeed="0.00" departDelay="0.00" arrival="83.00" arrivalLane="-1419_1" arrivalPos="85.65" arrivalSpeed="0.00" duration="54.00" routeLength="424.74" waitingTime="14.00" waitingCount="1" stopTime="0.00" timeLoss="21.61" rerouteNo="0" devices="tripinfo_random_1714621936223296045" vType="vehicle.ford.mustang" speedFactor="1.01" vaporized="traci"/>
    <tripinfo id="random_1714621936224191845" depart="29.00" departLane="-1462_1" departPos="2.31" departSpeed="0.00" departDelay="0.00" arrival="83.00" arrivalLane="-1661_1" arrivalPos="9.14" arrivalSpeed="5.89" duration="54.00" routeLength="626.77" waitingTime="0.00" waitingCount="0" stopTime="0.00" timeLoss="13.12" rerouteNo="0" devices="tripinfo_random_1714621936224191845" vType="vehicle.micro.microlino" speedFactor="1.17" vaporized="traci"/>
    <tripinfo id="random_1714621936225129545" depart="29.00" departLane="-1532_1" departPos="4.99" departSpeed="0.00" departDelay="0.00" arrival="83.00" arrivalLane="-1471_1" arrivalPos="62.41" arrivalSpeed="0.00" duration="54.00" routeLength="296.58" waitingTime="18.00" waitingCount="1" stopTime="0.00" timeLoss="30.08" rerouteNo="0" devices="tripinfo_random_1714621936225129545" vType="vehicle.lincoln.mkz_2020" speedFactor="0.99" vaporized="traci"/>
    <tripinfo id="random_1714621936226042045" depart="30.00" departLane="-1577_1" departPos="6.47" departSpeed="0.00" departDelay="0.00" arrival="83.00" arrivalLane="-1581_1" arrivalPos="28.27" arrivalSpeed="4.40" duration="53.00" routeLength="371.54" waitingTime="0.00" waitingCount="0" stopTime="0.00" timeLoss="24.29" rerouteNo="0" devices="tripinfo_random_1714621936226042045" vType="vehicle.ford.ambulance" speedFactor="1.02" vaporized="traci"/>
    <tripinfo id="random_1714621936836680960" depart="30.00" departLane="-1541_1" departPos="0.20" departSpeed="0.00" departDelay="0.00" arrival="83.00" arrivalLane="-1467_1" arrivalPos="26.65" arrivalSpeed="6.75" duration="53.00" routeLength="573.29" waitingTime="4.00" waitingCount="1" stopTime="0.00" timeLoss="19.25" rerouteNo="0" devices="tripinfo_random_1714621936836680960" vType="vehicle.harley-davidson.low_rider" speedFactor="0.97" vaporized="traci"/>
    <tripinfo id="random_1714621936842561360" depart="30.00" departLane="-1508_1" departPos="4.29" departSpeed="0.00" departDelay="0.00" arrival="83.00" arrivalLane="-1504_1" arrivalPos="10.77" arrivalSpeed="7.36" duration="53.00" routeLength="645.06" waitingTime="0.00" waitingCount="0" stopTime="0.00" timeLoss="10.64" rerouteNo="0" devices="tripinfo_random_1714621936842561360" vType="vehicle.seat.leon" speedFactor="1.18" vaporized="traci"/>
    <tripinfo id="random_1714621936847145361" depart="31.00" departLane="-1617_1" departPos="1.94" departSpeed="0.00" departDelay="0.00" arrival="83.00" arrivalLane="-1617_1" arrivalPos="77.10" arrivalSpeed="0.00" duration="52.00" routeLength="75.16" waitingTime="33.00" waitingCount="1" stopTime="0.00" timeLoss="37.47" rerouteNo="0" devices="tripinfo_random_1714621936847145361" vType="vehicle.gazelle.omafiets" speedFactor="1.10" vaporized="traci"/>
    <tripinfo id="random_1714621937452623975" depart="31.00" departLane="-1547_1" departPos="4.65" departSpeed="0.00" departDelay="0.00" arrival="83.00" arrivalLane=":26_0_1" arrivalPos="0.24" arrivalSpeed="4.58" duration="52.00" routeLength="344.35" waitingTime="3.00" waitingCount="1" stopTime="0.00" timeLoss="20.89" rerouteNo="0" devices="tripinfo_random_1714621937452623975" vType="vehicle.mini.cooper_s_2021" speedFactor="0.90" vaporized="traci"/>
    <tripinfo id="random_1714621937454177275" depart="31.00" departLane="-1499_0" departPos="0.20" departSpeed="0.00" departDelay="0.00" arrival="83.00" arrivalLane="-1665_1" arrivalPos="10.06" arrivalSpeed="0.00" duration="52.00" routeLength="315.34" waitingTime="20.00" waitingCount="1" stopTime="0.00" timeLoss="27.60" rerouteNo="0" devices="tripinfo_random_1714621937454177275" vType="vehicle.nissan.micra" speedFactor="1.03" vaporized="traci"/>
    <tripinfo id="random_1714621937455702675" depart="32.00" departLane="-1575_1" departPos="4.65" departSpeed="0.00" departDelay="0.00" arrival="83.00" arrivalLane="-1427_1" arrivalPos="331.10" arrivalSpeed="12.56" duration="51.00" routeLength="523.00" waitingTime="0.00" waitingCount="0" stopTime="0.00" timeLoss="9.31" rerouteNo="0" devices="tripinfo_random_1714621937455702675" vType="vehicle.mini.cooper_s_2021" speedFactor="0.96" vaporized="traci"/>
    <tripinfo id="random_1714621938072761690" depart="32.00" departLane="-1615_1" departPos="4.99" departSpeed="0.00" departDelay="0.00" arrival="83.00" arrivalLane="-1616_1" arrivalPos="73.50" arrivalSpeed="6.99" duration="51.00" routeLength="353.49" waitingTime="0.00" waitingCount="0" stopTime="0.00" timeLoss="18.85" rerouteNo="0" devices="tripinfo_random_1714621938072761690" vType="vehicle.lincoln.mkz_2020" speedFactor="1.09" vaporized="traci"/>
    <tripinfo id="random_1714621938073799790" depart="32.00" departLane="-1642_1" departPos="1.76" departSpeed="0.00" departDelay="0.00" arrival="83.00" arrivalLane="-1581_1" arrivalPos="39.31" arrivalSpeed="5.11" duration="51.00" routeLength="249.47" waitingTime="0.00" waitingCount="0" stopTime="0.00" timeLoss="5.10" rerouteNo="0" devices="tripinfo_random_1714621938073799790" vType="vehicle.diamondback.century" speedFactor="1.04" vaporized="traci"/>
    <tripinfo id="random_1714621938074839390" depart="32.00" departLane="-1648_1" departPos="0.25" departSpeed="0.00" departDelay="0.00" arrival="83.00" arrivalLane="-1467_1" arrivalPos="102.92" arrivalSpeed="5.24" duration="51.00" routeLength="537.19" waitingTime="0.00" waitingCount="0" stopTime="0.00" timeLoss="25.67" rerouteNo="0" devices="tripinfo_random_1714621938074839390" vType="vehicle.ford.ambulance" speedFactor="1.04" vaporized="traci"/>
    <tripinfo id="random_1714621938075790590" depart="32.00" departLane="-1618_1" departPos="6.02" departSpeed="0.00" departDelay="0.00" arrival="83.00" arrivalLane="-1613_2" arrivalPos="75.45" arrivalSpeed="14.55" duration="51.00" routeLength="556.55" waitingTime="0.00" waitingCount="0" stopTime="0.00" timeLoss="10.81" rerouteNo="0" devices="tripinfo_random_1714621938075790590" vType="vehicle.mercedes.sprinter" speedFactor="1.09" vaporized="traci"/>
    <tripinfo id="random_1714621938077193790" depart="32.00" departLane="-1544_1" departPos="3.97" departSpeed="0.00" departDelay="0.00" arrival="83.00" arrivalLane="-1521_1" arrivalPos="0.10" arrivalSpeed="0.00" duration="51.00" routeLength="88.91" waitingTime="36.00" waitingCount="2" stopTime="0.00" timeLoss="42.57" rerouteNo="0" devices="tripinfo_random_1714621938077193790" vType="vehicle.jeep.wrangler_rubicon" speedFactor="1.00" vaporized="traci"/>
    <tripinfo id="random_1714621938078655290" depart="32.00" departLane="-1534_1" departPos="8.57" departSpeed="0.00" departDelay="0.00" arrival="83.00" arrivalLane="-1622_1" arrivalPos="63.99" arrivalSpeed="0.00" duration="51.00" routeLength="377.22" waitingTime="5.00" waitingCount="1" stopTime="0.00" timeLoss="16.65" rerouteNo="0" devices="tripinfo_random_1714621938078655290" vType="vehicle.carlamotors.firetruck" speedFactor="0.90" vaporized="traci"/>
    <tripinfo id="random_1714621938079965990" depart="34.00" departLane="-1613_2" departPos="5.00" departSpeed="0.00" departDelay="1.00" arrival="83.00" arrivalLane="-1552_2" arrivalPos="9.80" arrivalSpeed="0.00" duration="49.00" routeLength="182.19" waitingTime="28.00" waitingCount="1" stopTime="0.00" timeLoss="33.04" rerouteNo="0" devices="tripinfo_random_1714621938079965990" vType="vehicle.lincoln.mkz_2017" speedFactor="0.88" vaporized="traci"/>
    <tripinfo id="random_1714621938692549605" depart="33.00" departLane="-1466_1" departPos="5.47" departSpeed="0.00" departDelay="0.00" arrival="83.00" arrivalLane="-1461_1" arrivalPos="355.94" arrivalSpeed="11.32" duration="50.00" routeLength="509.59" waitingTime="0.00" waitingCount="0" stopTime="0.00" timeLoss="5.44" rerouteNo="0" devices="tripinfo_random_1714621938692549605" vType="vehicle.ford.crown" speedFactor="0.85" vaporized="traci"/>
    <tripinfo id="random_1714621938695587905" depart="33.00" departLane="-1614_1" departPos="4.58" departSpeed="0.00" departDelay="0.00" arrival="83.00" arrivalLane="-1513_1" arrivalPos="23.56" arrivalSpeed="11.37" duration="50.00" routeLength="315.10" waitingTime="0.00" waitingCount="0" stopTime="0.00" timeLoss="11.14" rerouteNo="0" devices="tripinfo_random_1714621938695587905" vType="vehicle.volkswagen.t2" speedFactor="0.85" vaporized="traci"/>
    <tripinfo id="random_1714621938697578305" depart="34.00" departLane="-1624_1" departPos="3.73" departSpeed="0.00" departDelay="0.00" arrival="83.00" arrivalLane="-1661_1" arrivalPos="198.60" arrivalSpeed="16.16" duration="49.00" routeLength="645.25" waitingTime="0.00" waitingCount="0" stopTime="0.00" timeLoss="8.65" rerouteNo="0" devices="tripinfo_random_1714621938697578305" vType="vehicle.nissan.micra" speedFactor="1.17" vaporized="traci"/>
    <tripinfo id="random_1714621939316057520" depart="34.00" departLane="-1408_1" departPos="0.20" departSpeed="0.00" departDelay="0.00" arrival="83.00" arrivalLane="-1467_1" arrivalPos="1.33" arrivalSpeed="7.45" duration="49.00" routeLength="509.65" waitingTime="9.00" waitingCount="1" stopTime="0.00" timeLoss="22.49" rerouteNo="0" devices="tripinfo_random_1714621939316057520" vType="vehicle.lincoln.mkz_2017" speedFactor="1.02" vaporized="traci"/>
    <tripinfo id="random_1714621939318242020" depart="35.00" departLane="-1529_1" departPos="4.82" departSpeed="0.00" departDelay="0.00" arrival="83.00" arrivalLane=":124_0_1" arrivalPos="0.35" arrivalSpeed="6.56" duration="48.00" routeLength="326.42" waitingTime="0.00" waitingCount="0" stopTime="0.00" timeLoss="16.96" rerouteNo="0" devices="tripinfo_random_1714621939318242020" vType="vehicle.ford.mustang" speedFactor="1.10" vaporized="traci"/>
    <tripinfo id="random_1714621939937976236" depart="35.00" departLane="-1492_1" departPos="3.51" departSpeed="0.00" departDelay="0.00" arrival="83.00" arrivalLane=":22_5_0" arrivalPos="12.18" arrivalSpeed="0.00" duration="48.00" routeLength="287.40" waitingTime="16.00" waitingCount="1" stopTime="0.00" timeLoss="25.43" rerouteNo="0" devices="tripinfo_random_1714621939937976236" vType="DEFAULT_VEHTYPE" speedFactor="1.00" vaporized="traci"/>