<?xml version="1.0" encoding="UTF-8"?>

<<<<<<< HEAD
<!-- generated on 2024-04-13 01:41:50 by Eclipse SUMO GUI Version 1.19.0
=======
<!-- generated on 2024-04-12 12:33:46 by Eclipse SUMO GUI Version 1.12.0
>>>>>>> 2e96d565f0c31edbe0faf983b2e5fcaf185cc562
<configuration xmlns:xsi="http://www.w3.org/2001/XMLSchema-instance" xsi:noNamespaceSchemaLocation="http://sumo.dlr.de/xsd/sumoConfiguration.xsd">

    <input>
        <net-file value="../Adapters/co_simulation/sumo_configuration/simple-map/simple-map.net.xml"/>
        <route-files value="../Adapters/co_simulation/sumo_configuration/simple-map/carlavtypes.rou.xml,../Adapters/co_simulation/sumo_configuration/simple-map/simple-map.rou.xml"/>
    </input>

    <output>
        <tripinfo-output value="tripinfo.xml"/>
    </output>

    <traci_server>
<<<<<<< HEAD
        <remote-port value="47515"/>
=======
        <remote-port value="38863"/>
>>>>>>> 2e96d565f0c31edbe0faf983b2e5fcaf185cc562
        <num-clients value="1"/>
    </traci_server>

    <gui_only>
        <gui-settings-file value="../Adapters/co_simulation/sumo_configuration/simple-map/simple-map.view.xml"/>
<<<<<<< HEAD
=======
        <quit-on-end value="true"/>
>>>>>>> 2e96d565f0c31edbe0faf983b2e5fcaf185cc562
    </gui_only>

</configuration>
-->

<tripinfos xmlns:xsi="http://www.w3.org/2001/XMLSchema-instance" xsi:noNamespaceSchemaLocation="http://sumo.dlr.de/xsd/tripinfo_file.xsd">
</tripinfos>
