<?xml version="1.0" encoding="UTF-8"?>

<!-- generated on 2024-05-01 14:11:11 by Eclipse SUMO GUI Version 1.12.0
<configuration xmlns:xsi="http://www.w3.org/2001/XMLSchema-instance" xsi:noNamespaceSchemaLocation="http://sumo.dlr.de/xsd/sumoConfiguration.xsd">

    <input>
        <net-file value="../Adapters/co_simulation/sumo_configuration/simple-map/UA.net.xml"/>
        <route-files value="../Adapters/co_simulation/sumo_configuration/simple-map/carlavtypes.rou.xml,../Adapters/co_simulation/sumo_configuration/simple-map/simple-map.rou.xml"/>
    </input>

    <output>
        <tripinfo-output value="tripinfo.xml"/>
    </output>

    <traci_server>
        <remote-port value="44257"/>
        <num-clients value="1"/>
    </traci_server>

    <gui_only>
        <gui-settings-file value="../Adapters/co_simulation/sumo_configuration/simple-map/simple-map.view.xml"/>
    </gui_only>

</configuration>
-->

<tripinfos xmlns:xsi="http://www.w3.org/2001/XMLSchema-instance" xsi:noNamespaceSchemaLocation="http://sumo.dlr.de/xsd/tripinfo_file.xsd">
    <tripinfo id="0" depart="3.00" departLane="-1466_1" departPos="5.34" departSpeed="0.00" departDelay="0.00" arrival="12.00" arrivalLane="-1465_1" arrivalPos="11.38" arrivalSpeed="13.75" duration="9.00" routeLength="73.18" waitingTime="0.00" waitingCount="0" stopTime="0.00" timeLoss="3.49" rerouteNo="0" devices="tripinfo_0" vType="vehicle.dodge.charger_police_2020" speedFactor="1.06" vaporized=""/>
    <tripinfo id="random_1714569108968339875" depart="57.00" departLane="-1532_1" departPos="5.67" departSpeed="0.00" departDelay="0.00" arrival="68.00" arrivalLane="-1532_1" arrivalPos="107.18" arrivalSpeed="11.64" duration="11.00" routeLength="101.51" waitingTime="0.00" waitingCount="0" stopTime="0.00" timeLoss="2.59" rerouteNo="0" devices="tripinfo_random_1714569108968339875" vType="vehicle.nissan.patrol_2021" speedFactor="0.88" vaporized=""/>
    <tripinfo id="random_1714569114554451451" depart="66.00" departLane="-1615_2" departPos="3.91" departSpeed="0.00" departDelay="0.00" arrival="78.00" arrivalLane="-1512_2" arrivalPos="0.20" arrivalSpeed="12.50" duration="12.00" routeLength="81.64" waitingTime="0.00" waitingCount="0" stopTime="0.00" timeLoss="5.11" rerouteNo="0" devices="tripinfo_random_1714569114554451451" vType="vehicle.mini.cooper_s" speedFactor="1.18" vaporized=""/>
    <tripinfo id="random_1714569108962683175" depart="57.00" departLane="-1594_1" departPos="0.20" departSpeed="0.00" departDelay="0.00" arrival="89.00" arrivalLane="-1647_1" arrivalPos="0.20" arrivalSpeed="4.96" duration="32.00" routeLength="156.71" waitingTime="0.00" waitingCount="0" stopTime="0.00" timeLoss="3.61" rerouteNo="0" devices="tripinfo_random_1714569108962683175" vType="vehicle.bh.crossbike" speedFactor="0.93" vaporized=""/>
    <tripinfo id="random_1714569132535227718" depart="95.00" departLane="-1490_1" departPos="2.06" departSpeed="0.00" departDelay="0.00" arrival="99.00" arrivalLane="-1492_1" arrivalPos="3.51" arrivalSpeed="7.10" duration="4.00" routeLength="17.70" waitingTime="0.00" waitingCount="0" stopTime="0.00" timeLoss="2.87" rerouteNo="0" devices="tripinfo_random_1714569132535227718" vType="DEFAULT_VEHTYPE" speedFactor="0.93" vaporized=""/>
    <tripinfo id="random_1714569110206784725" depart="62.00" departLane="-1502_0" departPos="0.20" departSpeed="0.00" departDelay="2.00" arrival="101.00" arrivalLane="-1425_1" arrivalPos="70.17" arrivalSpeed="11.48" duration="39.00" routeLength="325.57" waitingTime="0.00" waitingCount="0" stopTime="0.00" timeLoss="8.38" rerouteNo="0" devices="tripinfo_random_1714569110206784725" vType="vehicle.carlamotors.firetruck" speedFactor="0.89" vaporized=""/>
    <tripinfo id="random_1714569120133422721" depart="76.00" departLane="-1421_1" departPos="5.47" departSpeed="0.00" departDelay="0.00" arrival="115.00" arrivalLane="-1607_1" arrivalPos="280.15" arrivalSpeed="14.67" duration="39.00" routeLength="459.47" waitingTime="0.00" waitingCount="0" stopTime="0.00" timeLoss="7.13" rerouteNo="0" devices="tripinfo_random_1714569120133422721" vType="vehicle.ford.crown" speedFactor="1.08" vaporized=""/>
    <tripinfo id="random_1714569143084294280" depart="113.00" departLane="-1500_0" departPos="0.20" departSpeed="0.00" departDelay="0.00" arrival="121.00" arrivalLane="-1496_1" arrivalPos="1.31" arrivalSpeed="9.42" duration="8.00" routeLength="47.01" waitingTime="0.00" waitingCount="0" stopTime="0.00" timeLoss="2.70" rerouteNo="0" devices="tripinfo_random_1714569143084294280" vType="vehicle.ford.crown" speedFactor="1.14" vaporized=""/>
    <tripinfo id="random_1714569114544546051" depart="66.00" departLane="-1615_1" departPos="4.77" departSpeed="0.00" departDelay="0.00" arrival="131.00" arrivalLane="-1612_2" arrivalPos="219.69" arrivalSpeed="13.26" duration="65.00" routeLength="630.01" waitingTime="0.00" waitingCount="0" stopTime="0.00" timeLoss="14.33" rerouteNo="0" devices="tripinfo_random_1714569114544546051" vType="vehicle.mercedes.coupe_2020" speedFactor="1.02" vaporized=""/>
    <tripinfo id="random_1714569138118777607" depart="104.00" departLane="-1477_1" departPos="5.00" departSpeed="0.00" departDelay="0.00" arrival="139.00" arrivalLane="-1610_2" arrivalPos="123.98" arrivalSpeed="14.69" duration="35.00" routeLength="217.89" waitingTime="0.00" waitingCount="0" stopTime="0.00" timeLoss="20.01" rerouteNo="0" devices="tripinfo_random_1714569138118777607" vType="vehicle.lincoln.mkz_2017" speedFactor="1.12" vaporized=""/>
    <tripinfo id="random_1714569128821328057" depart="89.00" departLane="-1472_1" departPos="1.92" departSpeed="0.00" departDelay="0.00" arrival="142.00" arrivalLane="-1434_1" arrivalPos="0.20" arrivalSpeed="12.94" duration="53.00" routeLength="698.36" waitingTime="0.00" waitingCount="0" stopTime="0.00" timeLoss="12.61" rerouteNo="0" devices="tripinfo_random_1714569128821328057" vType="vehicle.vespa.zx125" speedFactor="1.01" vaporized=""/>
    <tripinfo id="random_1714569107723229245" depart="55.00" departLane="-1574_1" departPos="5.11" departSpeed="0.00" departDelay="0.00" arrival="144.00" arrivalLane="-1578_1" arrivalPos="0.10" arrivalSpeed="6.59" duration="89.00" routeLength="1012.14" waitingTime="0.00" waitingCount="0" stopTime="0.00" timeLoss="16.30" rerouteNo="0" devices="tripinfo_random_1714569107723229245" vType="vehicle.dodge.charger_2020" speedFactor="1.03" vaporized=""/>
    <tripinfo id="random_1714569107100896409" depart="54.00" departLane="-1497_1" departPos="1.67" departSpeed="0.00" departDelay="0.00" arrival="148.00" arrivalLane="-1593_1" arrivalPos="188.17" arrivalSpeed="12.05" duration="94.00" routeLength="639.49" waitingTime="15.00" waitingCount="2" stopTime="0.00" timeLoss="39.72" rerouteNo="0" devices="tripinfo_random_1714569107100896409" vType="vehicle.lincoln.mkz_2020" speedFactor="0.94" vaporized=""/>
    <tripinfo id="random_1714569122612607086" depart="79.00" departLane="-1623_1" departPos="2.31" departSpeed="0.00" departDelay="0.00" arrival="148.00" arrivalLane="-1613_1" arrivalPos="154.44" arrivalSpeed="12.49" duration="69.00" routeLength="762.53" waitingTime="0.00" waitingCount="0" stopTime="0.00" timeLoss="7.57" rerouteNo="0" devices="tripinfo_random_1714569122612607086" vType="vehicle.micro.microlino" speedFactor="0.91" vaporized=""/>
    <tripinfo id="random_1714569130053024743" depart="91.00" departLane="-1548_1" departPos="1.76" departSpeed="0.00" departDelay="0.00" arrival="151.00" arrivalLane="-1521_1" arrivalPos="0.20" arrivalSpeed="5.00" duration="60.00" routeLength="170.26" waitingTime="20.00" waitingCount="1" stopTime="0.00" timeLoss="29.32" rerouteNo="0" devices="tripinfo_random_1714569130053024743" vType="vehicle.diamondback.century" speedFactor="0.96" vaporized=""/>
    <tripinfo id="random_1714569133155325516" depart="96.00" departLane="-1408_1" departPos="0.20" departSpeed="0.00" departDelay="0.00" arrival="151.00" arrivalLane="-1572_1" arrivalPos="59.16" arrivalSpeed="12.02" duration="55.00" routeLength="640.08" waitingTime="0.00" waitingCount="0" stopTime="0.00" timeLoss="9.12" rerouteNo="0" devices="tripinfo_random_1714569133155325516" vType="vehicle.dodge.charger_2020" speedFactor="1.10" vaporized=""/>
    <tripinfo id="random_1714569139359063429" depart="106.00" departLane="-1425_1" departPos="4.71" departSpeed="0.00" departDelay="0.00" arrival="157.00" arrivalLane="-1663_2" arrivalPos="134.19" arrivalSpeed="12.10" duration="51.00" routeLength="409.57" waitingTime="3.00" waitingCount="1" stopTime="0.00" timeLoss="17.71" rerouteNo="0" devices="tripinfo_random_1714569139359063429" vType="vehicle.bmw.grandtourer" speedFactor="0.96" vaporized=""/>
    <tripinfo id="random_1714569118270183247" depart="72.00" departLane="-1591_1" departPos="6.02" departSpeed="0.00" departDelay="0.00" arrival="159.00" arrivalLane="-1610_1" arrivalPos="123.98" arrivalSpeed="11.09" duration="87.00" routeLength="885.59" waitingTime="0.00" waitingCount="0" stopTime="0.00" timeLoss="10.44" rerouteNo="0" devices="tripinfo_random_1714569118270183247" vType="vehicle.mercedes.sprinter" speedFactor="0.85" vaporized=""/>
    <tripinfo id="random_1714569137507338099" depart="104.00" departLane="-1621_1" departPos="3.16" departSpeed="0.00" departDelay="0.00" arrival="159.00" arrivalLane="-1542_1" arrivalPos="1.20" arrivalSpeed="11.24" duration="55.00" routeLength="171.61" waitingTime="31.00" waitingCount="1" stopTime="0.00" timeLoss="43.98" rerouteNo="0" devices="tripinfo_random_1714569137507338099" vType="vehicle.jeep.wrangler_rubicon" speedFactor="0.82" vaporized=""/>
    <tripinfo id="random_1714569148675250392" depart="121.00" departLane="-1638_1" departPos="5.46" departSpeed="0.00" departDelay="0.00" arrival="160.00" arrivalLane="-1642_1" arrivalPos="43.80" arrivalSpeed="15.41" duration="39.00" routeLength="419.98" waitingTime="0.00" waitingCount="0" stopTime="0.00" timeLoss="9.57" rerouteNo="0" devices="tripinfo_random_1714569148675250392" vType="vehicle.chevrolet.impala" speedFactor="1.13" vaporized=""/>
    <tripinfo id="random_1714569105872081237" depart="52.00" departLane="-1633_1" departPos="4.70" departSpeed="0.00" departDelay="0.00" arrival="163.00" arrivalLane="-1415_0" arrivalPos="87.23" arrivalSpeed="20.72" duration="111.00" routeLength="1370.96" waitingTime="0.00" waitingCount="0" stopTime="0.00" timeLoss="16.40" rerouteNo="0" devices="tripinfo_random_1714569105872081237" vType="vehicle.nissan.patrol" speedFactor="1.03" vaporized=""/>
    <tripinfo id="random_1714569140599709452" depart="108.00" departLane="-1662_1" departPos="5.13" departSpeed="0.00" departDelay="0.00" arrival="163.00" arrivalLane="-1632_1" arrivalPos="41.07" arrivalSpeed="15.21" duration="55.00" routeLength="715.42" waitingTime="0.00" waitingCount="0" stopTime="0.00" timeLoss="8.42" rerouteNo="0" devices="tripinfo_random_1714569140599709452" vType="vehicle.mercedes.coupe" speedFactor="1.12" vaporized=""/>
    <tripinfo id="random_1714569114556208751" depart="67.00" departLane="-1614_1" departPos="1.76" departSpeed="0.00" departDelay="0.00" arrival="166.00" arrivalLane="-1616_1" arrivalPos="109.27" arrivalSpeed="5.07" duration="99.00" routeLength="502.99" waitingTime="0.00" waitingCount="0" stopTime="0.00" timeLoss="8.30" rerouteNo="0" devices="tripinfo_random_1714569114556208751" vType="vehicle.diamondback.century" speedFactor="1.10" vaporized=""/>
    <tripinfo id="random_1714569128201041613" depart="88.00" departLane="-1409_1" departPos="5.10" departSpeed="0.00" departDelay="0.00" arrival="166.00" arrivalLane="-1583_1" arrivalPos="0.20" arrivalSpeed="6.52" duration="78.00" routeLength="477.21" waitingTime="12.00" waitingCount="2" stopTime="0.00" timeLoss="35.91" rerouteNo="0" devices="tripinfo_random_1714569128201041613" vType="DEFAULT_TAXITYPE" speedFactor="0.96" vaporized=""/>
    <tripinfo id="random_1714569119516355729" depart="74.00" departLane="-1544_1" departPos="3.81" departSpeed="0.00" departDelay="0.00" arrival="172.00" arrivalLane="-1657_2" arrivalPos="0.48" arrivalSpeed="11.61" duration="98.00" routeLength="783.77" waitingTime="17.00" waitingCount="2" stopTime="0.00" timeLoss="45.78" rerouteNo="0" devices="tripinfo_random_1714569119516355729" vType="vehicle.audi.a2" speedFactor="1.14" vaporized=""/>
    <tripinfo id="random_1714569116416192676" depart="69.00" departLane="-1492_1" departPos="3.51" departSpeed="0.00" departDelay="0.00" arrival="175.00" arrivalLane="-1616_1" arrivalPos="109.27" arrivalSpeed="7.87" duration="106.00" routeLength="663.71" waitingTime="17.00" waitingCount="3" stopTime="0.00" timeLoss="50.85" rerouteNo="0" devices="tripinfo_random_1714569116416192676" vType="vehicle.tesla.model3" speedFactor="1.04" vaporized=""/>
    <tripinfo id="random_1714569148670036091" depart="121.00" departLane="-1653_1" departPos="5.11" departSpeed="0.00" departDelay="0.00" arrival="177.00" arrivalLane="-1482_1" arrivalPos="0.33" arrivalSpeed="2.74" duration="56.00" routeLength="604.07" waitingTime="0.00" waitingCount="0" stopTime="0.00" timeLoss="9.56" rerouteNo="0" devices="tripinfo_random_1714569148670036091" vType="vehicle.dodge.charger_2020" speedFactor="0.99" vaporized=""/>
    <tripinfo id="random_1714569107734286146" depart="56.00" departLane="-1525_2" departPos="4.29" departSpeed="0.00" departDelay="0.00" arrival="179.00" arrivalLane="-1612_2" arrivalPos="219.69" arrivalSpeed="15.50" duration="123.00" routeLength="1066.45" waitingTime="12.00" waitingCount="1" stopTime="0.00" timeLoss="38.60" rerouteNo="0" devices="tripinfo_random_1714569107734286146" vType="vehicle.seat.leon" speedFactor="1.12" vaporized=""/>
    <tripinfo id="random_1714569144326080594" depart="114.00" departLane="-1404_1" departPos="4.29" departSpeed="0.00" departDelay="0.00" arrival="181.00" arrivalLane="-1541_1" arrivalPos="0.20" arrivalSpeed="6.36" duration="67.00" routeLength="742.51" waitingTime="4.00" waitingCount="1" stopTime="0.00" timeLoss="23.42" rerouteNo="0" devices="tripinfo_random_1714569144326080594" vType="vehicle.seat.leon" speedFactor="1.00" vaporized=""/>
    <tripinfo id="random_1714569141844413766" depart="110.00" departLane="-1491_1" departPos="1.66" departSpeed="0.00" departDelay="0.00" arrival="186.00" arrivalLane="-1560_1" arrivalPos="211.16" arrivalSpeed="14.76" duration="76.00" routeLength="503.70" waitingTime="19.00" waitingCount="1" stopTime="0.00" timeLoss="41.01" rerouteNo="0" devices="tripinfo_random_1714569141844413766" vType="vehicle.carlamotors.firetruck" speedFactor="1.11" vaporized=""/>
    <tripinfo id="random_1714569105859352136" depart="52.00" departLane="-1506_1" departPos="4.70" departSpeed="0.00" departDelay="0.00" arrival="189.00" arrivalLane="-1583_1" arrivalPos="0.20" arrivalSpeed="6.81" duration="137.00" routeLength="858.43" waitingTime="46.00" waitingCount="1" stopTime="0.00" timeLoss="65.09" rerouteNo="0" devices="tripinfo_random_1714569105859352136" vType="vehicle.nissan.patrol" speedFactor="1.01" vaporized=""/>
    <tripinfo id="random_1714569122618069586" depart="80.00" departLane="-1490_1" departPos="2.06" departSpeed="0.00" departDelay="0.00" arrival="195.00" arrivalLane="-1616_1" arrivalPos="109.27" arrivalSpeed="7.80" duration="115.00" routeLength="666.40" waitingTime="27.00" waitingCount="3" stopTime="0.00" timeLoss="59.95" rerouteNo="0" devices="tripinfo_random_1714569122618069586" vType="vehicle.audi.etron" speedFactor="1.04" vaporized=""/>
    <tripinfo id="random_1714569123867588768" depart="82.00" departLane="-1640_0" departPos="1.92" departSpeed="0.00" departDelay="0.00" arrival="198.00" arrivalLane="-1511_2" arrivalPos="0.20" arrivalSpeed="7.15" duration="116.00" routeLength="574.23" waitingTime="47.00" waitingCount="2" stopTime="0.00" timeLoss="71.53" rerouteNo="0" devices="tripinfo_random_1714569123867588768" vType="vehicle.vespa.zx125" speedFactor="0.98" vaporized=""/>
    <tripinfo id="random_1714569138130212911" depart="105.00" departLane="-1646_1" departPos="5.11" departSpeed="0.00" departDelay="0.00" arrival="198.00" arrivalLane="-1606_1" arrivalPos="33.74" arrivalSpeed="15.04" duration="93.00" routeLength="289.77" waitingTime="59.00" waitingCount="1" stopTime="0.00" timeLoss="80.05" rerouteNo="0" devices="tripinfo_random_1714569138130212911" vType="vehicle.dodge.charger_2020" speedFactor="1.03" vaporized=""/>
    <tripinfo id="random_1714569105250732900" depart="52.00" departLane="-1505_1" departPos="0.20" departSpeed="0.00" departDelay="0.00" arrival="204.00" arrivalLane="-1455_1" arrivalPos="3.16" arrivalSpeed="10.49" duration="152.00" routeLength="1049.08" waitingTime="59.00" waitingCount="1" stopTime="0.00" timeLoss="82.16" rerouteNo="0" devices="tripinfo_random_1714569105250732900" vType="vehicle.kawasaki.ninja" speedFactor="0.94" vaporized=""/>
    <tripinfo id="random_1714569105238923599" depart="51.00" departLane="-1609_2" departPos="4.82" departSpeed="0.00" departDelay="0.00" arrival="221.00" arrivalLane="-1467_1" arrivalPos="12.83" arrivalSpeed="0.00" duration="170.00" routeLength="836.48" waitingTime="98.00" waitingCount="2" stopTime="0.00" timeLoss="123.72" rerouteNo="0" devices="tripinfo_random_1714569105238923599" vType="vehicle.ford.mustang" speedFactor="1.06" vaporized="traci"/>
    <tripinfo id="random_1714569105864146236" depart="52.00" departLane="-1512_1" departPos="0.20" departSpeed="0.00" departDelay="0.00" arrival="221.00" arrivalLane=":73_8_1" arrivalPos="14.81" arrivalSpeed="0.00" duration="169.00" routeLength="406.72" waitingTime="119.00" waitingCount="1" stopTime="0.00" timeLoss="132.67" rerouteNo="0" devices="tripinfo_random_1714569105864146236" vType="vehicle.mitsubishi.fusorosa" speedFactor="1.08" vaporized="traci"/>
    <tripinfo id="random_1714569105876003737" depart="53.00" departLane="-1622_2" departPos="3.73" departSpeed="0.00" departDelay="0.00" arrival="221.00" arrivalLane=":73_3_0" arrivalPos="7.08" arrivalSpeed="0.00" duration="168.00" routeLength="91.90" waitingTime="152.00" waitingCount="2" stopTime="0.00" timeLoss="158.88" rerouteNo="0" devices="tripinfo_random_1714569105876003737" vType="vehicle.nissan.micra" speedFactor="0.83" vaporized="traci"/>
    <tripinfo id="random_1714569106480709072" depart="53.00" departLane="-1391_1" departPos="4.65" departSpeed="0.00" departDelay="0.00" arrival="221.00" arrivalLane="-1467_1" arrivalPos="104.44" arrivalSpeed="0.00" duration="168.00" routeLength="382.49" waitingTime="130.00" waitingCount="1" stopTime="0.00" timeLoss="141.68" rerouteNo="0" devices="tripinfo_random_1714569106480709072" vType="vehicle.mini.cooper_s_2021" speedFactor="1.05" vaporized="traci"/>
    <tripinfo id="random_1714569106485348373" depart="54.00" departLane="-1560_1" departPos="6.02" departSpeed="0.00" departDelay="0.00" arrival="221.00" arrivalLane="-1661_1" arrivalPos="541.86" arrivalSpeed="7.37" duration="167.00" routeLength="1535.50" waitingTime="10.00" waitingCount="1" stopTime="0.00" timeLoss="37.58" rerouteNo="0" devices="tripinfo_random_1714569106485348373" vType="vehicle.mercedes.sprinter" speedFactor="0.89" vaporized="traci"/>
    <tripinfo id="random_1714569107106299809" depart="54.00" departLane="-1652_1" departPos="0.20" departSpeed="0.00" departDelay="0.00" arrival="221.00" arrivalLane="-1427_1" arrivalPos="616.48" arrivalSpeed="4.80" duration="167.00" routeLength="1336.92" waitingTime="0.00" waitingCount="0" stopTime="0.00" timeLoss="53.68" rerouteNo="0" devices="tripinfo_random_1714569107106299809" vType="vehicle.bmw.grandtourer" speedFactor="0.86" vaporized="traci"/>
    <tripinfo id="random_1714569107112880210" depart="55.00" departLane="-1522_1" departPos="4.29" departSpeed="0.00" departDelay="0.00" arrival="221.00" arrivalLane="-1613_2" arrivalPos="143.05" arrivalSpeed="0.00" duration="166.00" routeLength="770.06" waitingTime="99.00" waitingCount="1" stopTime="0.00" timeLoss="113.17" rerouteNo="0" devices="tripinfo_random_1714569107112880210" vType="vehicle.seat.leon" speedFactor="1.09" vaporized="traci"/>
    <tripinfo id="random_1714569107728084246" depart="55.00" departLane="-1579_1" departPos="4.82" departSpeed="0.00" departDelay="0.00" arrival="221.00" arrivalLane="-1467_1" arrivalPos="51.11" arrivalSpeed="0.00" duration="166.00" routeLength="758.14" waitingTime="89.00" waitingCount="1" stopTime="0.00" timeLoss="122.32" rerouteNo="0" devices="tripinfo_random_1714569107728084246" vType="vehicle.ford.mustang" speedFactor="1.05" vaporized="traci"/>
    <tripinfo id="random_1714569108351054082" depart="57.00" departLane="-1580_1" departPos="5.10" departSpeed="0.00" departDelay="0.00" arrival="221.00" arrivalLane=":73_3_0" arrivalPos="0.94" arrivalSpeed="0.00" duration="164.00" routeLength="305.74" waitingTime="131.00" waitingCount="2" stopTime="0.00" timeLoss="140.83" rerouteNo="0" devices="tripinfo_random_1714569108351054082" vType="DEFAULT_TAXITYPE" speedFactor="1.00" vaporized="traci"/>
    <tripinfo id="random_1714569108973654375" depart="57.00" departLane="-1415_0" departPos="4.58" departSpeed="0.00" departDelay="0.00" arrival="221.00" arrivalLane="-1617_1" arrivalPos="19.81" arrivalSpeed="0.00" duration="164.00" routeLength="867.62" waitingTime="51.00" waitingCount="4" stopTime="0.00" timeLoss="93.23" rerouteNo="0" devices="tripinfo_random_1714569108973654375" vType="vehicle.volkswagen.t2" speedFactor="0.94" vaporized="traci"/>
    <tripinfo id="random_1714569108977740375" depart="58.00" departLane="-1558_1" departPos="4.61" departSpeed="0.00" departDelay="0.00" arrival="221.00" arrivalLane="-1661_1" arrivalPos="561.69" arrivalSpeed="0.00" duration="163.00" routeLength="1376.52" waitingTime="25.00" waitingCount="1" stopTime="0.00" timeLoss="51.35" rerouteNo="0" devices="tripinfo_random_1714569108977740375" vType="vehicle.toyota.prius" speedFactor="0.94" vaporized="traci"/>
    <tripinfo id="random_1714569109588996750" depart="59.00" departLane="-1518_1" departPos="2.29" departSpeed="0.00" departDelay="0.00" arrival="222.00" arrivalLane="-1467_1" arrivalPos="22.23" arrivalSpeed="0.00" duration="163.00" routeLength="630.34" waitingTime="110.00" waitingCount="2" stopTime="0.00" timeLoss="132.75" rerouteNo="0" devices="tripinfo_random_1714569109588996750" vType="vehicle.yamaha.yzf" speedFactor="1.16" vaporized="traci"/>
    <tripinfo id="random_1714569110201555626" depart="59.00" departLane="-1662_1" departPos="4.54" departSpeed="0.00" departDelay="0.00" arrival="222.00" arrivalLane="-1602_1" arrivalPos="151.13" arrivalSpeed="0.00" duration="163.00" routeLength="890.87" waitingTime="66.00" waitingCount="3" stopTime="0.00" timeLoss="97.39" rerouteNo="0" devices="tripinfo_random_1714569110201555626" vType="vehicle.volkswagen.t2_2021" speedFactor="1.02" vaporized="traci"/>
    <tripinfo id="random_1714569110203595425" depart="59.00" departLane="-1434_1" departPos="0.20" departSpeed="0.00" departDelay="0.00" arrival="222.00" arrivalLane="-1467_1" arrivalPos="58.16" arrivalSpeed="0.00" duration="163.00" routeLength="599.30" waitingTime="92.00" waitingCount="1" stopTime="0.00" timeLoss="128.50" rerouteNo="0" devices="tripinfo_random_1714569110203595425" vType="vehicle.mini.cooper_s_2021" speedFactor="1.01" vaporized="traci"/>
    <tripinfo id="random_1714569110205453625" depart="59.00" departLane="-1634_1" departPos="1.76" departSpeed="0.00" departDelay="0.00" arrival="222.00" arrivalLane="-1427_1" arrivalPos="632.98" arrivalSpeed="5.03" duration="163.00" routeLength="832.37" waitingTime="0.00" waitingCount="0" stopTime="0.00" timeLoss="11.53" rerouteNo="0" devices="tripinfo_random_1714569110205453625" vType="vehicle.diamondback.century" speedFactor="0.98" vaporized="traci"/>
    <tripinfo id="random_1714569110823494201" depart="60.00" departLane="-1447_1" departPos="5.13" departSpeed="0.00" departDelay="0.00" arrival="222.00" arrivalLane="-1473_1" arrivalPos="205.68" arrivalSpeed="0.00" duration="162.00" routeLength="523.11" waitingTime="116.00" waitingCount="2" stopTime="0.00" timeLoss="130.67" rerouteNo="0" devices="tripinfo_random_1714569110823494201" vType="vehicle.mercedes.coupe" speedFactor="0.83" vaporized="traci"/>
    <tripinfo id="random_1714569110831831400" depart="61.00" departLane="-1592_1" departPos="1.61" departSpeed="0.00" departDelay="0.00" arrival="222.00" arrivalLane="-1464_1" arrivalPos="18.68" arrivalSpeed="0.00" duration="161.00" routeLength="167.37" waitingTime="118.00" waitingCount="2" stopTime="0.00" timeLoss="129.51" rerouteNo="0" devices="tripinfo_random_1714569110831831400" vType="vehicle.bh.crossbike" speedFactor="0.87" vaporized="traci"/>
    <tripinfo id="random_1714569111442206376" depart="61.00" departLane="-1654_1" departPos="0.20" departSpeed="0.00" departDelay="0.00" arrival="222.00" arrivalLane=":10_2_2" arrivalPos="10.18" arrivalSpeed="0.00" duration="161.00" routeLength="514.70" waitingTime="107.00" waitingCount="1" stopTime="0.00" timeLoss="119.36" rerouteNo="0" devices="tripinfo_random_1714569111442206376" vType="vehicle.toyota.prius" speedFactor="0.92" vaporized="traci"/>
    <tripinfo id="random_1714569111444152176" depart="62.00" departLane="-1461_1" departPos="4.70" departSpeed="0.00" departDelay="0.00" arrival="222.00" arrivalLane="-1613_2" arrivalPos="82.20" arrivalSpeed="0.00" duration="160.00" routeLength="1089.75" waitingTime="48.00" waitingCount="2" stopTime="0.00" timeLoss="75.54" rerouteNo="0" devices="tripinfo_random_1714569111444152176" vType="vehicle.nissan.patrol" speedFactor="0.95" vaporized="traci"/>
    <tripinfo id="random_1714569112065508451" depart="62.00" departLane="-1547_1" departPos="2.29" departSpeed="0.00" departDelay="0.00" arrival="222.00" arrivalLane=":82_0_1" arrivalPos="3.90" arrivalSpeed="0.00" duration="160.00" routeLength="903.82" waitingTime="58.00" waitingCount="4" stopTime="0.00" timeLoss="97.91" rerouteNo="0" devices="tripinfo_random_1714569112065508451" vType="vehicle.yamaha.yzf" speedFactor="1.13" vaporized="traci"/>
    <tripinfo id="random_1714569112071422851" depart="62.00" departLane="-1553_1" departPos="5.46" departSpeed="0.00" departDelay="0.00" arrival="222.00" arrivalLane="-1613_2" arrivalPos="150.91" arrivalSpeed="0.00" duration="160.00" routeLength="436.85" waitingTime="110.00" waitingCount="2" stopTime="0.00" timeLoss="123.30" rerouteNo="0" devices="tripinfo_random_1714569112071422851" vType="vehicle.chevrolet.impala" speedFactor="0.93" vaporized="traci"/>
    <tripinfo id="random_1714569112076212350" depart="63.00" departLane="-1524_1" departPos="4.65" departSpeed="0.00" departDelay="0.00" arrival="222.00" arrivalLane="-1617_2" arrivalPos="77.10" arrivalSpeed="0.00" duration="159.00" routeLength="403.63" waitingTime="98.00" waitingCount="3" stopTime="0.00" timeLoss="125.89" rerouteNo="0" devices="tripinfo_random_1714569112076212350" vType="vehicle.mini.cooper_s_2021" speedFactor="1.18" vaporized="traci"/>
    <tripinfo id="random_1714569112688652726" depart="67.00" departLane="-1561_1" departPos="1.09" departSpeed="0.00" departDelay="3.00" arrival="222.00" arrivalLane=":73_8_1" arrivalPos="3.48" arrivalSpeed="1.44" duration="155.00" routeLength="440.04" waitingTime="95.00" waitingCount="3" stopTime="0.00" timeLoss="118.52" rerouteNo="0" devices="tripinfo_random_1714569112688652726" vType="vehicle.toyota.prius" speedFactor="1.15" vaporized="traci"/>
    <tripinfo id="random_1714569113306728901" depart="64.00" departLane="-1666_1" departPos="5.46" departSpeed="0.00" departDelay="0.00" arrival="222.00" arrivalLane="-1661_1" arrivalPos="580.95" arrivalSpeed="0.00" duration="158.00" routeLength="1339.13" waitingTime="40.00" waitingCount="2" stopTime="0.00" timeLoss="58.71" rerouteNo="0" devices="tripinfo_random_1714569113306728901" vType="vehicle.chevrolet.impala" speedFactor="1.01" vaporized="traci"/>
    <tripinfo id="random_1714569113314810201" depart="65.00" departLane="-1492_1" departPos="3.51" departSpeed="0.00" departDelay="0.00" arrival="222.00" arrivalLane="-1617_1" arrivalPos="41.66" arrivalSpeed="0.00" duration="157.00" routeLength="705.66" waitingTime="52.00" waitingCount="3" stopTime="0.00" timeLoss="105.09" rerouteNo="0" devices="tripinfo_random_1714569113314810201" vType="vehicle.citroen.c3" speedFactor="1.17" vaporized="traci"/>
    <tripinfo id="random_1714569113930240576" depart="65.00" departLane="-1461_1" departPos="3.81" departSpeed="0.00" departDelay="0.00" arrival="222.00" arrivalLane="-1613_2" arrivalPos="75.09" arrivalSpeed="0.00" duration="157.00" routeLength="1083.54" waitingTime="41.00" waitingCount="3" stopTime="0.00" timeLoss="77.08" rerouteNo="0" devices="tripinfo_random_1714569113930240576" vType="vehicle.audi.a2" speedFactor="0.99" vaporized="traci"/>
    <tripinfo id="random_1714569114550057651" depart="68.00" departLane="-1615_1" departPos="1.76" departSpeed="0.00" departDelay="2.00" arrival="222.00" arrivalLane="-1617_1" arrivalPos="68.02" arrivalSpeed="0.00" duration="154.00" routeLength="460.80" waitingTime="60.00" waitingCount="1" stopTime="0.00" timeLoss="69.82" rerouteNo="0" devices="tripinfo_random_1714569114550057651" vType="vehicle.diamondback.century" speedFactor="0.97" vaporized="traci"/>
    <tripinfo id="random_1714569115169634126" depart="67.00" departLane="-1653_1" departPos="3.73" departSpeed="0.00" departDelay="0.00" arrival="222.00" arrivalLane="-1427_1" arrivalPos="611.05" arrivalSpeed="7.52" duration="155.00" routeLength="1315.14" waitingTime="1.00" waitingCount="1" stopTime="0.00" timeLoss="48.26" rerouteNo="0" devices="tripinfo_random_1714569115169634126" vType="vehicle.nissan.micra" speedFactor="0.90" vaporized="traci"/>
    <tripinfo id="random_1714569115175092326" depart="68.00" departLane="-1507_1" departPos="5.30" departSpeed="0.00" departDelay="0.00" arrival="222.00" arrivalLane="-1473_1" arrivalPos="226.91" arrivalSpeed="0.00" duration="154.00" routeLength="1088.73" waitingTime="61.00" waitingCount="1" stopTime="0.00" timeLoss="84.33" rerouteNo="0" devices="tripinfo_random_1714569115175092326" vType="vehicle.carlamotors.carlacola" speedFactor="1.02" vaporized="traci"/>