<?xml version="1.0" encoding="UTF-8"?>

<<<<<<< Updated upstream
<!-- generated on 2024-05-13 19:28:46 by Eclipse SUMO GUI Version 1.12.0
=======
<!-- generated on 2024-05-15 01:33:30 by Eclipse SUMO GUI Version 1.12.0
>>>>>>> Stashed changes
<configuration xmlns:xsi="http://www.w3.org/2001/XMLSchema-instance" xsi:noNamespaceSchemaLocation="http://sumo.dlr.de/xsd/sumoConfiguration.xsd">

    <input>
        <net-file value="../Adapters/co_simulation/sumo_configuration/simple-map/UA.net.xml"/>
        <route-files value="../Adapters/co_simulation/sumo_configuration/simple-map/carlavtypes.rou.xml,../Adapters/co_simulation/sumo_configuration/simple-map/simple-map.rou.xml"/>
    </input>

    <output>
        <tripinfo-output value="tripinfo.xml"/>
    </output>

    <traci_server>
<<<<<<< Updated upstream
        <remote-port value="57263"/>
=======
        <remote-port value="37079"/>
>>>>>>> Stashed changes
        <num-clients value="1"/>
    </traci_server>

    <gui_only>
        <gui-settings-file value="../Adapters/co_simulation/sumo_configuration/simple-map/simple-map.view.xml"/>
    </gui_only>

</configuration>
-->

<tripinfos xmlns:xsi="http://www.w3.org/2001/XMLSchema-instance" xsi:noNamespaceSchemaLocation="http://sumo.dlr.de/xsd/tripinfo_file.xsd">
<<<<<<< Updated upstream
=======
    <tripinfo id="0" depart="3.00" departLane="-1466_1" departPos="5.34" departSpeed="0.00" departDelay="0.00" arrival="12.00" arrivalLane="-1465_1" arrivalPos="11.38" arrivalSpeed="13.75" duration="9.00" routeLength="73.18" waitingTime="0.00" waitingCount="0" stopTime="0.00" timeLoss="3.49" rerouteNo="0" devices="tripinfo_0" vType="vehicle.dodge.charger_police_2020" speedFactor="1.06" vaporized=""/>
    <tripinfo id="randomCar_1715733261275717358" depart="78.00" departLane="-1536_1" departPos="5.34" departSpeed="0.00" departDelay="0.00" arrival="90.00" arrivalLane="-1539_1" arrivalPos="6.96" arrivalSpeed="8.31" duration="12.00" routeLength="79.99" waitingTime="0.00" waitingCount="0" stopTime="0.00" timeLoss="5.10" rerouteNo="0" devices="tripinfo_randomCar_1715733261275717358" vType="vehicle.dodge.charger_police_2020" speedFactor="1.18" vaporized=""/>
    <tripinfo id="randomCar_1715733263135646853" depart="82.00" departLane="-1649_1" departPos="0.20" departSpeed="0.00" departDelay="0.00" arrival="94.00" arrivalLane="-1433_1" arrivalPos="10.23" arrivalSpeed="19.78" duration="12.00" routeLength="118.17" waitingTime="0.00" waitingCount="0" stopTime="0.00" timeLoss="5.19" rerouteNo="0" devices="tripinfo_randomCar_1715733263135646853" vType="vehicle.dodge.charger_police_2020" speedFactor="1.04" vaporized=""/>
    <tripinfo id="randomCar_1715733264375143050" depart="83.00" departLane="-1648_1" departPos="0.25" departSpeed="0.00" departDelay="0.00" arrival="101.00" arrivalLane="-1517_1" arrivalPos="11.76" arrivalSpeed="12.25" duration="18.00" routeLength="117.64" waitingTime="0.00" waitingCount="0" stopTime="0.00" timeLoss="5.52" rerouteNo="0" devices="tripinfo_randomCar_1715733264375143050" vType="vehicle.dodge.charger_police_2020" speedFactor="0.90" vaporized=""/>
    <tripinfo id="randomCar_1715733261894121456" depart="79.00" departLane="-1432_1" departPos="5.34" departSpeed="0.00" departDelay="0.00" arrival="111.00" arrivalLane="-1586_1" arrivalPos="132.69" arrivalSpeed="10.25" duration="32.00" routeLength="264.75" waitingTime="0.00" waitingCount="0" stopTime="0.00" timeLoss="6.16" rerouteNo="0" devices="tripinfo_randomCar_1715733261894121456" vType="vehicle.dodge.charger_police_2020" speedFactor="0.97" vaporized=""/>
    <tripinfo id="randomCar_1715733261890045756" depart="79.00" departLane="-1665_1" departPos="5.34" departSpeed="0.00" departDelay="0.00" arrival="120.00" arrivalLane="-1524_1" arrivalPos="5.55" arrivalSpeed="14.77" duration="41.00" routeLength="257.70" waitingTime="8.00" waitingCount="1" stopTime="0.00" timeLoss="20.89" rerouteNo="0" devices="tripinfo_randomCar_1715733261890045756" vType="vehicle.dodge.charger_police_2020" speedFactor="1.12" vaporized=""/>
    <tripinfo id="randomCar_1715733269276257337" depart="93.00" departLane="-1540_1" departPos="5.34" departSpeed="0.00" departDelay="0.00" arrival="122.00" arrivalLane="-1434_1" arrivalPos="0.20" arrivalSpeed="16.85" duration="29.00" routeLength="240.54" waitingTime="0.00" waitingCount="0" stopTime="0.00" timeLoss="15.65" rerouteNo="0" devices="tripinfo_randomCar_1715733269276257337" vType="vehicle.dodge.charger_police_2020" speedFactor="1.27" vaporized=""/>
    <tripinfo id="randomCar_1715733264375973350" depart="83.00" departLane="-1656_1" departPos="1.57" departSpeed="0.00" departDelay="0.00" arrival="128.00" arrivalLane="-1554_1" arrivalPos="152.48" arrivalSpeed="15.38" duration="45.00" routeLength="562.07" waitingTime="0.00" waitingCount="0" stopTime="0.00" timeLoss="9.23" rerouteNo="0" devices="tripinfo_randomCar_1715733264375973350" vType="vehicle.dodge.charger_police_2020" speedFactor="1.19" vaporized=""/>
    <tripinfo id="randomCar_1715733261273869458" depart="78.00" departLane="-1579_1" departPos="5.34" departSpeed="0.00" departDelay="0.00" arrival="130.00" arrivalLane="-1597_1" arrivalPos="29.37" arrivalSpeed="12.72" duration="52.00" routeLength="441.00" waitingTime="0.00" waitingCount="0" stopTime="0.00" timeLoss="16.25" rerouteNo="0" devices="tripinfo_randomCar_1715733261273869458" vType="vehicle.dodge.charger_police_2020" speedFactor="0.93" vaporized=""/>
    <tripinfo id="randomCar_1715733264993448149" depart="85.00" departLane="-1439_1" departPos="0.20" departSpeed="0.00" departDelay="0.00" arrival="131.00" arrivalLane="-1642_1" arrivalPos="43.80" arrivalSpeed="11.86" duration="46.00" routeLength="474.40" waitingTime="0.00" waitingCount="0" stopTime="0.00" timeLoss="6.27" rerouteNo="0" devices="tripinfo_randomCar_1715733264993448149" vType="vehicle.dodge.charger_police_2020" speedFactor="0.94" vaporized=""/>
    <tripinfo id="randomCar_1715733271523457926" depart="100.00" departLane="-1477_1" departPos="5.34" departSpeed="0.00" departDelay="0.00" arrival="138.00" arrivalLane="-1556_1" arrivalPos="74.30" arrivalSpeed="13.09" duration="38.00" routeLength="393.77" waitingTime="0.00" waitingCount="0" stopTime="0.00" timeLoss="6.71" rerouteNo="0" devices="tripinfo_randomCar_1715733271523457926" vType="vehicle.dodge.charger_police_2020" speedFactor="0.96" vaporized=""/>
    <tripinfo id="randomCar_1715733263751691352" depart="83.00" departLane="-1604_1" departPos="5.34" departSpeed="0.00" departDelay="1.00" arrival="140.00" arrivalLane="-1564_1" arrivalPos="56.13" arrivalSpeed="13.79" duration="57.00" routeLength="547.10" waitingTime="4.00" waitingCount="1" stopTime="0.00" timeLoss="15.90" rerouteNo="0" devices="tripinfo_randomCar_1715733263751691352" vType="vehicle.dodge.charger_police_2020" speedFactor="1.00" vaporized=""/>
    <tripinfo id="randomCar_1715733264372738750" depart="86.00" departLane="-1655_1" departPos="0.20" departSpeed="0.00" departDelay="3.00" arrival="149.00" arrivalLane="-1408_1" arrivalPos="0.20" arrivalSpeed="6.08" duration="63.00" routeLength="769.88" waitingTime="0.00" waitingCount="0" stopTime="0.00" timeLoss="15.54" rerouteNo="0" devices="tripinfo_randomCar_1715733264372738750" vType="vehicle.dodge.charger_police_2020" speedFactor="1.19" vaporized=""/>
    <tripinfo id="randomCar_1715733267472569143" depart="88.00" departLane="-1525_1" departPos="5.34" departSpeed="0.00" departDelay="0.00" arrival="149.00" arrivalLane="-1647_1" arrivalPos="0.20" arrivalSpeed="7.41" duration="61.00" routeLength="811.59" waitingTime="0.00" waitingCount="0" stopTime="0.00" timeLoss="12.99" rerouteNo="0" devices="tripinfo_randomCar_1715733267472569143" vType="vehicle.dodge.charger_police_2020" speedFactor="1.06" vaporized=""/>
    <tripinfo id="randomCar_1715733269599490635" depart="94.00" departLane="-1557_1" departPos="5.34" departSpeed="0.00" departDelay="0.00" arrival="149.00" arrivalLane="-1653_2" arrivalPos="7.71" arrivalSpeed="13.75" duration="55.00" routeLength="601.11" waitingTime="0.00" waitingCount="0" stopTime="0.00" timeLoss="11.80" rerouteNo="0" devices="tripinfo_randomCar_1715733269599490635" vType="vehicle.dodge.charger_police_2020" speedFactor="1.01" vaporized=""/>
    <tripinfo id="randomCar_1715733268633138640" depart="94.00" departLane="-1610_2" departPos="5.34" departSpeed="0.00" departDelay="3.00" arrival="152.00" arrivalLane="-1599_1" arrivalPos="63.52" arrivalSpeed="12.52" duration="58.00" routeLength="520.92" waitingTime="1.00" waitingCount="1" stopTime="0.00" timeLoss="13.96" rerouteNo="0" devices="tripinfo_randomCar_1715733268633138640" vType="vehicle.dodge.charger_police_2020" speedFactor="0.92" vaporized=""/>
    <tripinfo id="randomCar_1715733266854998444" depart="87.00" departLane="-1570_1" departPos="5.34" departSpeed="0.00" departDelay="0.00" arrival="157.00" arrivalLane="-1483_1" arrivalPos="0.20" arrivalSpeed="12.97" duration="70.00" routeLength="786.08" waitingTime="0.00" waitingCount="0" stopTime="0.00" timeLoss="9.16" rerouteNo="0" devices="tripinfo_randomCar_1715733266854998444" vType="vehicle.dodge.charger_police_2020" speedFactor="0.96" vaporized=""/>
    <tripinfo id="randomCar_1715733267941345542" depart="89.00" departLane="-1598_1" departPos="5.34" departSpeed="0.00" departDelay="0.00" arrival="158.00" arrivalLane="-1531_1" arrivalPos="96.99" arrivalSpeed="11.75" duration="69.00" routeLength="701.20" waitingTime="3.00" waitingCount="1" stopTime="0.00" timeLoss="17.76" rerouteNo="0" devices="tripinfo_randomCar_1715733267941345542" vType="vehicle.dodge.charger_police_2020" speedFactor="0.90" vaporized=""/>
    <tripinfo id="randomCar_1715733272159462623" depart="103.00" departLane="-1567_1" departPos="5.34" departSpeed="0.00" departDelay="1.00" arrival="159.00" arrivalLane="-1583_2" arrivalPos="0.20" arrivalSpeed="6.73" duration="56.00" routeLength="321.38" waitingTime="1.00" waitingCount="1" stopTime="0.00" timeLoss="30.58" rerouteNo="0" devices="tripinfo_randomCar_1715733272159462623" vType="vehicle.dodge.charger_police_2020" speedFactor="1.13" vaporized=""/>
    <tripinfo id="randomCar_1715733263132501353" depart="81.00" departLane="-1559_1" departPos="0.56" departSpeed="0.00" departDelay="0.00" arrival="161.00" arrivalLane="-1612_2" arrivalPos="219.69" arrivalSpeed="11.62" duration="80.00" routeLength="654.04" waitingTime="2.00" waitingCount="1" stopTime="0.00" timeLoss="20.20" rerouteNo="0" devices="tripinfo_randomCar_1715733263132501353" vType="vehicle.dodge.charger_police_2020" speedFactor="0.90" vaporized=""/>
    <tripinfo id="randomCar_1715733270883686229" depart="100.00" departLane="-1657_1" departPos="0.48" departSpeed="0.00" departDelay="2.00" arrival="161.00" arrivalLane="-1525_1" arrivalPos="45.95" arrivalSpeed="13.11" duration="61.00" routeLength="673.37" waitingTime="0.00" waitingCount="0" stopTime="0.00" timeLoss="13.83" rerouteNo="0" devices="tripinfo_randomCar_1715733270883686229" vType="vehicle.dodge.charger_police_2020" speedFactor="1.02" vaporized=""/>
    <tripinfo id="randomCar_1715733260656626659" depart="77.00" departLane="-1666_1" departPos="5.34" departSpeed="0.00" departDelay="0.00" arrival="163.00" arrivalLane="-1476_1" arrivalPos="253.15" arrivalSpeed="13.51" duration="86.00" routeLength="1007.43" waitingTime="0.00" waitingCount="0" stopTime="0.00" timeLoss="12.74" rerouteNo="0" devices="tripinfo_randomCar_1715733260656626659" vType="vehicle.dodge.charger_police_2020" speedFactor="1.03" vaporized=""/>
    <tripinfo id="randomCar_1715733272488539522" depart="103.00" departLane="-1615_1" departPos="5.34" departSpeed="0.00" departDelay="0.00" arrival="164.00" arrivalLane="-1617_2" arrivalPos="78.10" arrivalSpeed="11.87" duration="61.00" routeLength="467.30" waitingTime="0.00" waitingCount="0" stopTime="0.00" timeLoss="16.21" rerouteNo="0" devices="tripinfo_randomCar_1715733272488539522" vType="vehicle.dodge.charger_police_2020" speedFactor="0.98" vaporized=""/>
    <tripinfo id="randomCar_1715733269594832435" depart="94.00" departLane="-1615_1" departPos="5.34" departSpeed="0.00" departDelay="0.00" arrival="166.00" arrivalLane="-1653_1" arrivalPos="7.71" arrivalSpeed="12.33" duration="72.00" routeLength="721.08" waitingTime="0.00" waitingCount="0" stopTime="0.00" timeLoss="12.49" rerouteNo="0" devices="tripinfo_randomCar_1715733269594832435" vType="vehicle.dodge.charger_police_2020" speedFactor="0.95" vaporized=""/>
    <tripinfo id="randomCar_1715733269278939237" depart="93.00" departLane="-1621_1" departPos="3.16" departSpeed="0.00" departDelay="0.00" arrival="171.00" arrivalLane="-1408_1" arrivalPos="0.20" arrivalSpeed="5.76" duration="78.00" routeLength="280.05" waitingTime="43.00" waitingCount="1" stopTime="0.00" timeLoss="57.87" rerouteNo="0" devices="tripinfo_randomCar_1715733269278939237" vType="vehicle.dodge.charger_police_2020" speedFactor="0.98" vaporized=""/>
    <tripinfo id="randomCar_1715733264377215850" depart="83.00" departLane="-1612_1" departPos="5.34" departSpeed="0.00" departDelay="0.00" arrival="173.00" arrivalLane="-1517_1" arrivalPos="11.76" arrivalSpeed="11.93" duration="90.00" routeLength="1153.34" waitingTime="0.00" waitingCount="0" stopTime="0.00" timeLoss="17.39" rerouteNo="0" devices="tripinfo_randomCar_1715733264377215850" vType="vehicle.dodge.charger_police_2020" speedFactor="1.05" vaporized=""/>
    <tripinfo id="randomCar_1715733269916302834" depart="95.00" departLane="-1654_1" departPos="0.20" departSpeed="0.00" departDelay="0.00" arrival="173.00" arrivalLane="-1583_2" arrivalPos="0.20" arrivalSpeed="5.34" duration="78.00" routeLength="761.89" waitingTime="1.00" waitingCount="1" stopTime="0.00" timeLoss="16.81" rerouteNo="0" devices="tripinfo_randomCar_1715733269916302834" vType="vehicle.dodge.charger_police_2020" speedFactor="0.98" vaporized=""/>
    <tripinfo id="randomCar_1715733267470653543" depart="88.00" departLane="-1510_1" departPos="0.93" departSpeed="0.00" departDelay="0.00" arrival="176.00" arrivalLane="-1610_1" arrivalPos="123.98" arrivalSpeed="13.15" duration="88.00" routeLength="868.53" waitingTime="0.00" waitingCount="0" stopTime="0.00" timeLoss="18.56" rerouteNo="0" devices="tripinfo_randomCar_1715733267470653543" vType="vehicle.dodge.charger_police_2020" speedFactor="0.97" vaporized=""/>
    <tripinfo id="randomCar_1715733270558232331" depart="97.00" departLane="-1662_1" departPos="5.34" departSpeed="0.00" departDelay="0.00" arrival="177.00" arrivalLane="-1508_1" arrivalPos="11.56" arrivalSpeed="15.09" duration="80.00" routeLength="895.60" waitingTime="1.00" waitingCount="1" stopTime="0.00" timeLoss="19.99" rerouteNo="0" devices="tripinfo_randomCar_1715733270558232331" vType="vehicle.dodge.charger_police_2020" speedFactor="1.13" vaporized=""/>
    <tripinfo id="randomCar_1715733271521841226" depart="100.00" departLane="-1623_1" departPos="5.34" departSpeed="0.00" departDelay="0.00" arrival="177.00" arrivalLane="-1599_1" arrivalPos="63.52" arrivalSpeed="13.95" duration="77.00" routeLength="830.10" waitingTime="0.00" waitingCount="0" stopTime="0.00" timeLoss="18.21" rerouteNo="0" devices="tripinfo_randomCar_1715733271521841226" vType="vehicle.dodge.charger_police_2020" speedFactor="1.07" vaporized=""/>
    <tripinfo id="randomCar_1715733264991479849" depart="84.00" departLane="-1527_1" departPos="5.34" departSpeed="0.00" departDelay="0.00" arrival="179.00" arrivalLane="-1532_1" arrivalPos="107.18" arrivalSpeed="13.49" duration="95.00" routeLength="540.15" waitingTime="38.00" waitingCount="1" stopTime="0.00" timeLoss="56.67" rerouteNo="0" devices="tripinfo_randomCar_1715733264991479849" vType="vehicle.dodge.charger_police_2020" speedFactor="1.00" vaporized=""/>
>>>>>>> Stashed changes
</tripinfos>
