<?xml version="1.0" encoding="UTF-8"?>

<!-- generated on 2024-04-11 14:39:17 by Eclipse SUMO GUI Version 1.12.0
<configuration xmlns:xsi="http://www.w3.org/2001/XMLSchema-instance" xsi:noNamespaceSchemaLocation="http://sumo.dlr.de/xsd/sumoConfiguration.xsd">

    <input>
        <net-file value="../Adapters/co_simulation/sumo_configuration/simple-map/simple-map.net.xml"/>
        <route-files value="../Adapters/co_simulation/sumo_configuration/simple-map/carlavtypes.rou.xml,../Adapters/co_simulation/sumo_configuration/simple-map/simple-map.rou.xml"/>
    </input>

    <output>
        <tripinfo-output value="tripinfo.xml"/>
    </output>

    <traci_server>
        <remote-port value="39885"/>
        <num-clients value="1"/>
    </traci_server>

    <gui_only>
        <gui-settings-file value="../Adapters/co_simulation/sumo_configuration/simple-map/simple-map.view.xml"/>
    </gui_only>

</configuration>
-->

<tripinfos xmlns:xsi="http://www.w3.org/2001/XMLSchema-instance" xsi:noNamespaceSchemaLocation="http://sumo.dlr.de/xsd/tripinfo_file.xsd">
    <tripinfo id="sumo_1712842760362876955" depart="5.00" departLane="-1497_1" departPos="3.81" departSpeed="0.00" departDelay="0.00" arrival="33.00" arrivalLane="-1393_1" arrivalPos="10.23" arrivalSpeed="23.18" duration="28.00" routeLength="279.71" waitingTime="0.00" waitingCount="0" stopTime="0.00" timeLoss="8.76" rerouteNo="0" devices="tripinfo_sumo_1712842760362876955" vType="vehicle.audi.a2" speedFactor="1.06" vaporized=""/>
    <tripinfo id="sumo_1712842768545860593" depart="20.00" departLane="-1498_1" departPos="3.81" departSpeed="0.00" departDelay="0.00" arrival="55.00" arrivalLane="-1476_1" arrivalPos="11.62" arrivalSpeed="9.68" duration="35.00" routeLength="263.67" waitingTime="0.00" waitingCount="0" stopTime="0.00" timeLoss="13.34" rerouteNo="0" devices="tripinfo_sumo_1712842768545860593" vType="vehicle.audi.a2" speedFactor="0.83" vaporized=""/>
    <tripinfo id="sumo_1712842788396773992" depart="52.00" departLane="-1537_1" departPos="3.81" departSpeed="0.00" departDelay="0.00" arrival="58.00" arrivalLane="-1537_1" arrivalPos="38.25" arrivalSpeed="12.54" duration="6.00" routeLength="34.44" waitingTime="0.00" waitingCount="0" stopTime="0.00" timeLoss="2.60" rerouteNo="0" devices="tripinfo_sumo_1712842788396773992" vType="vehicle.audi.a2" speedFactor="0.93" vaporized=""/>
    <tripinfo id="sumo_1712842761721817888" depart="9.00" departLane="-1614_1" departPos="3.81" departSpeed="0.00" departDelay="0.00" arrival="72.00" arrivalLane="-1514_1" arrivalPos="152.48" arrivalSpeed="11.83" duration="63.00" routeLength="640.28" waitingTime="0.00" waitingCount="0" stopTime="0.00" timeLoss="13.38" rerouteNo="0" devices="tripinfo_sumo_1712842761721817888" vType="vehicle.audi.a2" speedFactor="0.94" vaporized=""/>
    <tripinfo id="sumo_1712842764823078810" depart="12.00" departLane="-1502_1" departPos="1.20" departSpeed="0.00" departDelay="0.00" arrival="73.00" arrivalLane="-1599_1" arrivalPos="2.23" arrivalSpeed="15.24" duration="61.00" routeLength="699.77" waitingTime="0.00" waitingCount="0" stopTime="0.00" timeLoss="12.68" rerouteNo="0" devices="tripinfo_sumo_1712842764823078810" vType="vehicle.audi.a2" speedFactor="1.08" vaporized=""/>
    <tripinfo id="sumo_1712842777231321848" depart="33.00" departLane="-1449_0" departPos="0.20" departSpeed="0.00" departDelay="0.00" arrival="77.00" arrivalLane="-1543_1" arrivalPos="0.20" arrivalSpeed="4.93" duration="44.00" routeLength="409.68" waitingTime="0.00" waitingCount="0" stopTime="0.00" timeLoss="6.02" rerouteNo="0" devices="tripinfo_sumo_1712842777231321848" vType="vehicle.audi.a2" speedFactor="0.86" vaporized=""/>
    <tripinfo id="sumo_1712842782812560198" depart="44.00" departLane="-1399_1" departPos="0.20" departSpeed="0.00" departDelay="0.00" arrival="77.00" arrivalLane="-1433_1" arrivalPos="257.50" arrivalSpeed="22.21" duration="33.00" routeLength="501.78" waitingTime="0.00" waitingCount="0" stopTime="0.00" timeLoss="6.58" rerouteNo="0" devices="tripinfo_sumo_1712842782812560198" vType="vehicle.audi.a2" speedFactor="1.05" vaporized=""/>
    <tripinfo id="0" depart="3.00" departLane="-1545_1" departPos="3.81" departSpeed="0.00" departDelay="0.00" arrival="82.00" arrivalLane="-1590_1" arrivalPos="41.07" arrivalSpeed="13.64" duration="79.00" routeLength="1069.16" waitingTime="0.00" waitingCount="0" stopTime="0.00" timeLoss="5.76" rerouteNo="0" devices="tripinfo_0" vType="vehicle.audi.a2" speedFactor="1.06" vaporized=""/>
    <tripinfo id="sumo_1712842808243593602" depart="82.00" departLane="-1531_1" departPos="3.81" departSpeed="0.00" departDelay="0.00" arrival="104.00" arrivalLane="-1533_1" arrivalPos="77.57" arrivalSpeed="12.25" duration="22.00" routeLength="216.54" waitingTime="0.00" waitingCount="0" stopTime="0.00" timeLoss="3.93" rerouteNo="0" devices="tripinfo_sumo_1712842808243593602" vType="vehicle.audi.a2" speedFactor="1.13" vaporized=""/>
    <tripinfo id="sumo_1712842792737302619" depart="60.00" departLane="-1611_1" departPos="3.81" departSpeed="0.00" departDelay="0.00" arrival="108.00" arrivalLane="-1405_1" arrivalPos="31.10" arrivalSpeed="11.83" duration="48.00" routeLength="480.80" waitingTime="0.00" waitingCount="0" stopTime="0.00" timeLoss="9.56" rerouteNo="0" devices="tripinfo_sumo_1712842792737302619" vType="vehicle.audi.a2" speedFactor="0.94" vaporized=""/>
    <tripinfo id="sumo_1712842814445715874" depart="94.00" departLane="-1606_1" departPos="0.25" departSpeed="0.00" departDelay="0.00" arrival="134.00" arrivalLane="-1537_1" arrivalPos="38.25" arrivalSpeed="14.19" duration="40.00" routeLength="462.93" waitingTime="0.00" waitingCount="0" stopTime="0.00" timeLoss="10.03" rerouteNo="0" devices="tripinfo_sumo_1712842814445715874" vType="vehicle.audi.a2" speedFactor="1.17" vaporized=""/>
    <tripinfo id="sumo_1712842765443211080" depart="16.00" departLane="-1551_1" departPos="3.81" departSpeed="0.00" departDelay="0.00" arrival="138.00" arrivalLane="-1567_1" arrivalPos="280.15" arrivalSpeed="14.14" duration="122.00" routeLength="1397.48" waitingTime="5.00" waitingCount="1" stopTime="0.00" timeLoss="22.18" rerouteNo="0" devices="tripinfo_sumo_1712842765443211080" vType="vehicle.audi.a2" speedFactor="1.03" vaporized=""/>
    <tripinfo id="sumo_1712842775990501931" depart="30.00" departLane="-1459_0" departPos="0.20" departSpeed="0.00" departDelay="0.00" arrival="143.00" arrivalLane="-1595_1" arrivalPos="51.66" arrivalSpeed="12.29" duration="113.00" routeLength="1172.39" waitingTime="0.00" waitingCount="0" stopTime="0.00" timeLoss="18.33" rerouteNo="0" devices="tripinfo_sumo_1712842775990501931" vType="vehicle.audi.a2" speedFactor="0.94" vaporized=""/>
    <tripinfo id="sumo_1712842798939959269" depart="68.00" departLane="-1620_1" departPos="3.81" departSpeed="0.00" departDelay="0.00" arrival="144.00" arrivalLane="-1614_2" arrivalPos="11.96" arrivalSpeed="13.17" duration="76.00" routeLength="802.05" waitingTime="0.00" waitingCount="0" stopTime="0.00" timeLoss="13.78" rerouteNo="0" devices="tripinfo_sumo_1712842798939959269" vType="vehicle.audi.a2" speedFactor="0.98" vaporized=""/>
    <tripinfo id="sumo_1712842821269818818" depart="105.00" departLane="-1443_1" departPos="0.20" departSpeed="0.00" departDelay="0.00" arrival="149.00" arrivalLane="-1566_1" arrivalPos="33.74" arrivalSpeed="14.50" duration="44.00" routeLength="595.76" waitingTime="0.00" waitingCount="0" stopTime="0.00" timeLoss="8.27" rerouteNo="0" devices="tripinfo_sumo_1712842821269818818" vType="vehicle.audi.a2" speedFactor="1.18" vaporized=""/>
    <tripinfo id="sumo_1712842790256746613" depart="54.00" departLane="-1448_0" departPos="0.20" departSpeed="0.00" departDelay="0.00" arrival="157.00" arrivalLane="-1422_1" arrivalPos="7.48" arrivalSpeed="7.74" duration="103.00" routeLength="1098.61" waitingTime="0.00" waitingCount="0" stopTime="0.00" timeLoss="9.49" rerouteNo="0" devices="tripinfo_sumo_1712842790256746613" vType="vehicle.audi.a2" speedFactor="0.88" vaporized=""/>
    <tripinfo id="sumo_1712842850422278315" depart="152.00" departLane="-1480_1" departPos="3.81" departSpeed="0.00" departDelay="0.00" arrival="159.00" arrivalLane="-1480_1" arrivalPos="46.66" arrivalSpeed="12.51" duration="7.00" routeLength="42.85" waitingTime="0.00" waitingCount="0" stopTime="0.00" timeLoss="3.45" rerouteNo="0" devices="tripinfo_sumo_1712842850422278315" vType="vehicle.audi.a2" speedFactor="1.00" vaporized=""/>
    <tripinfo id="sumo_1712842763583164426" depart="11.00" departLane="-1466_1" departPos="3.81" departSpeed="0.00" departDelay="0.00" arrival="160.00" arrivalLane="-1432_1" arrivalPos="59.90" arrivalSpeed="14.02" duration="149.00" routeLength="1209.05" waitingTime="39.00" waitingCount="1" stopTime="0.00" timeLoss="60.45" rerouteNo="0" devices="tripinfo_sumo_1712842763583164426" vType="vehicle.audi.a2" speedFactor="1.01" vaporized=""/>
    <tripinfo id="sumo_1712842837396082425" depart="131.00" departLane="-1416_1" departPos="3.81" departSpeed="0.00" departDelay="0.00" arrival="160.00" arrivalLane="-1370_1" arrivalPos="20.92" arrivalSpeed="10.60" duration="29.00" routeLength="275.14" waitingTime="0.00" waitingCount="0" stopTime="0.00" timeLoss="5.52" rerouteNo="0" devices="tripinfo_sumo_1712842837396082425" vType="vehicle.audi.a2" speedFactor="0.90" vaporized=""/>
    <tripinfo id="sumo_1712842797699398420" depart="66.00" departLane="-1379_1" departPos="3.81" departSpeed="0.00" departDelay="0.00" arrival="161.00" arrivalLane="-1563_1" arrivalPos="0.20" arrivalSpeed="8.36" duration="95.00" routeLength="898.04" waitingTime="5.00" waitingCount="1" stopTime="0.00" timeLoss="28.21" rerouteNo="0" devices="tripinfo_sumo_1712842797699398420" vType="vehicle.audi.a2" speedFactor="1.01" vaporized=""/>
    <tripinfo id="sumo_1712842812583950911" depart="91.00" departLane="-1595_2" departPos="3.81" departSpeed="0.00" departDelay="0.00" arrival="168.00" arrivalLane="-1497_1" arrivalPos="45.63" arrivalSpeed="13.03" duration="77.00" routeLength="639.96" waitingTime="11.00" waitingCount="1" stopTime="0.00" timeLoss="31.14" rerouteNo="0" devices="tripinfo_sumo_1712842812583950911" vType="vehicle.audi.a2" speedFactor="1.01" vaporized=""/>
    <tripinfo id="sumo_1712842856623054447" depart="161.00" departLane="-1551_1" departPos="3.81" departSpeed="0.00" departDelay="0.00" arrival="168.00" arrivalLane="-1551_1" arrivalPos="49.79" arrivalSpeed="13.34" duration="7.00" routeLength="45.98" waitingTime="0.00" waitingCount="0" stopTime="0.00" timeLoss="3.10" rerouteNo="0" devices="tripinfo_sumo_1712842856623054447" vType="vehicle.audi.a2" speedFactor="1.02" vaporized=""/>
    <tripinfo id="sumo_1712842770407643674" depart="23.00" departLane="-1374_1" departPos="3.81" departSpeed="0.00" departDelay="0.00" arrival="170.00" arrivalLane="-1592_1" arrivalPos="52.76" arrivalSpeed="14.22" duration="147.00" routeLength="1756.16" waitingTime="0.00" waitingCount="0" stopTime="0.00" timeLoss="20.98" rerouteNo="0" devices="tripinfo_sumo_1712842770407643674" vType="vehicle.audi.a2" speedFactor="1.05" vaporized=""/>
    <tripinfo id="sumo_1712842785295446912" depart="46.00" departLane="-1618_1" departPos="3.81" departSpeed="0.00" departDelay="0.00" arrival="174.00" arrivalLane="-1447_0" arrivalPos="0.20" arrivalSpeed="6.99" duration="128.00" routeLength="1732.29" waitingTime="0.00" waitingCount="0" stopTime="0.00" timeLoss="14.81" rerouteNo="0" devices="tripinfo_sumo_1712842785295446912" vType="vehicle.audi.a2" speedFactor="1.12" vaporized=""/>
    <tripinfo id="sumo_1712842800180189317" depart="70.00" departLane="-1532_1" departPos="3.81" departSpeed="0.00" departDelay="0.00" arrival="176.00" arrivalLane="-1432_1" arrivalPos="59.90" arrivalSpeed="12.04" duration="106.00" routeLength="986.82" waitingTime="2.00" waitingCount="1" stopTime="0.00" timeLoss="21.89" rerouteNo="0" devices="tripinfo_sumo_1712842800180189317" vType="vehicle.audi.a2" speedFactor="0.89" vaporized=""/>
    <tripinfo id="sumo_1712842835535533829" depart="128.00" departLane="-1582_2" departPos="3.81" departSpeed="0.00" departDelay="0.00" arrival="176.00" arrivalLane="-1595_1" arrivalPos="51.66" arrivalSpeed="13.13" duration="48.00" routeLength="523.87" waitingTime="0.00" waitingCount="0" stopTime="0.00" timeLoss="8.66" rerouteNo="0" devices="tripinfo_sumo_1712842835535533829" vType="vehicle.audi.a2" speedFactor="1.00" vaporized=""/>
    <tripinfo id="sumo_1712842819408683796" depart="102.00" departLane="-1543_1" departPos="0.20" departSpeed="0.00" departDelay="0.00" arrival="193.00" arrivalLane="-1379_1" arrivalPos="86.08" arrivalSpeed="12.27" duration="91.00" routeLength="1020.10" waitingTime="1.00" waitingCount="1" stopTime="0.00" timeLoss="14.90" rerouteNo="0" devices="tripinfo_sumo_1712842819408683796" vType="vehicle.audi.a2" speedFactor="0.97" vaporized=""/>
    <tripinfo id="sumo_1712842773510045782" depart="28.00" departLane="-1412_1" departPos="3.81" departSpeed="0.00" departDelay="0.00" arrival="198.00" arrivalLane="-1467_1" arrivalPos="287.82" arrivalSpeed="11.65" duration="170.00" routeLength="1840.17" waitingTime="0.00" waitingCount="0" stopTime="0.00" timeLoss="21.57" rerouteNo="0" devices="tripinfo_sumo_1712842773510045782" vType="vehicle.audi.a2" speedFactor="0.89" vaporized=""/>
    <tripinfo id="sumo_1712842829332528385" depart="118.00" departLane="-1461_0" departPos="0.20" departSpeed="0.00" departDelay="0.00" arrival="198.00" arrivalLane="-1591_1" arrivalPos="11.38" arrivalSpeed="14.62" duration="80.00" routeLength="1112.23" waitingTime="0.00" waitingCount="0" stopTime="0.00" timeLoss="6.10" rerouteNo="0" devices="tripinfo_sumo_1712842829332528385" vType="vehicle.audi.a2" speedFactor="1.09" vaporized=""/>
    <tripinfo id="sumo_1712842833674717992" depart="125.00" departLane="-1452_1" departPos="3.51" departSpeed="0.00" departDelay="0.00" arrival="200.00" arrivalLane="-1545_1" arrivalPos="1020.48" arrivalSpeed="15.02" duration="75.00" routeLength="1025.21" waitingTime="0.00" waitingCount="0" stopTime="0.00" timeLoss="6.38" rerouteNo="0" devices="tripinfo_sumo_1712842833674717992" vType="vehicle.audi.a2" speedFactor="1.09" vaporized=""/>
    <tripinfo id="sumo_1712842854762238853" depart="159.00" departLane="-1481_1" departPos="0.20" departSpeed="0.00" departDelay="0.00" arrival="200.00" arrivalLane="-1562_1" arrivalPos="151.23" arrivalSpeed="15.19" duration="41.00" routeLength="372.82" waitingTime="5.00" waitingCount="1" stopTime="0.00" timeLoss="15.63" rerouteNo="0" devices="tripinfo_sumo_1712842854762238853" vType="vehicle.audi.a2" speedFactor="1.14" vaporized=""/>
    <tripinfo id="sumo_1712842810102714492" depart="86.00" departLane="-1543_1" departPos="0.20" departSpeed="0.00" departDelay="0.00" arrival="201.00" arrivalLane="-1422_1" arrivalPos="7.48" arrivalSpeed="9.69" duration="115.00" routeLength="1550.90" waitingTime="0.00" waitingCount="0" stopTime="0.00" timeLoss="18.78" rerouteNo="0" devices="tripinfo_sumo_1712842810102714492" vType="vehicle.audi.a2" speedFactor="1.18" vaporized=""/>
    <tripinfo id="sumo_1712842791496983408" depart="56.00" departLane="-1567_1" departPos="3.81" departSpeed="0.00" departDelay="0.00" arrival="202.00" arrivalLane="-1490_2" arrivalPos="66.11" arrivalSpeed="9.48" duration="146.00" routeLength="1288.85" waitingTime="22.00" waitingCount="1" stopTime="0.00" timeLoss="41.22" rerouteNo="0" devices="tripinfo_sumo_1712842791496983408" vType="vehicle.audi.a2" speedFactor="0.94" vaporized=""/>
    <tripinfo id="sumo_1712842844219674486" depart="142.00" departLane="-1495_1" departPos="3.81" departSpeed="0.00" departDelay="0.00" arrival="202.00" arrivalLane="-1415_1" arrivalPos="3.16" arrivalSpeed="8.37" duration="60.00" routeLength="196.00" waitingTime="34.00" waitingCount="1" stopTime="0.00" timeLoss="48.95" rerouteNo="0" devices="tripinfo_sumo_1712842844219674486" vType="vehicle.audi.a2" speedFactor="1.02" vaporized=""/>
    <tripinfo id="sumo_1712842859102749515" depart="165.00" departLane="-1539_1" departPos="3.81" departSpeed="0.00" departDelay="0.00" arrival="205.00" arrivalLane="-1502_1" arrivalPos="1.20" arrivalSpeed="10.49" duration="40.00" routeLength="347.86" waitingTime="0.00" waitingCount="0" stopTime="0.00" timeLoss="13.69" rerouteNo="0" devices="tripinfo_sumo_1712842859102749515" vType="vehicle.audi.a2" speedFactor="1.08" vaporized=""/>
    <tripinfo id="sumo_1712842787156620877" depart="49.00" departLane="-1369_1" departPos="3.81" departSpeed="0.00" departDelay="0.00" arrival="213.00" arrivalLane="-1590_1" arrivalPos="41.07" arrivalSpeed="12.74" duration="164.00" routeLength="1794.86" waitingTime="0.00" waitingCount="0" stopTime="0.00" timeLoss="26.37" rerouteNo="0" devices="tripinfo_sumo_1712842787156620877" vType="vehicle.audi.a2" speedFactor="0.99" vaporized=""/>
</tripinfos>
