<?xml version="1.0" encoding="UTF-8"?>

<!-- generated on 2024-04-23 01:31:06 by Eclipse SUMO GUI Version 1.19.0
<configuration xmlns:xsi="http://www.w3.org/2001/XMLSchema-instance" xsi:noNamespaceSchemaLocation="http://sumo.dlr.de/xsd/sumoConfiguration.xsd">

    <input>
        <net-file value="../Adapters/co_simulation/sumo_configuration/simple-map/simple-map.net.xml"/>
        <route-files value="../Adapters/co_simulation/sumo_configuration/simple-map/carlavtypes.rou.xml,../Adapters/co_simulation/sumo_configuration/simple-map/simple-map.rou.xml"/>
    </input>

    <output>
        <tripinfo-output value="tripinfo.xml"/>
    </output>

    <traci_server>
        <remote-port value="49255"/>
        <num-clients value="1"/>
    </traci_server>

    <gui_only>
        <gui-settings-file value="../Adapters/co_simulation/sumo_configuration/simple-map/simple-map.view.xml"/>
        <quit-on-end value="true"/>
    </gui_only>

</configuration>
-->

<tripinfos xmlns:xsi="http://www.w3.org/2001/XMLSchema-instance" xsi:noNamespaceSchemaLocation="http://sumo.dlr.de/xsd/tripinfo_file.xsd">
    <tripinfo id="1" depart="5.00" departLane="-1473_1" departPos="3.81" departSpeed="0.00" departDelay="0.00" arrival="16.00" arrivalLane="-1485_1" arrivalPos="45.95" arrivalSpeed="11.95" duration="11.00" routeLength="95.41" waitingTime="0.00" waitingCount="0" stopTime="0.00" timeLoss="3.19" rerouteNo="0" devices="tripinfo_1" vType="vehicle.audi.a2" speedFactor="0.94" vaporized=""/>
    <tripinfo id="0" depart="3.00" departLane="-1545_1" departPos="3.81" departSpeed="0.00" departDelay="0.00" arrival="82.00" arrivalLane="-1422_1" arrivalPos="7.48" arrivalSpeed="9.98" duration="79.00" routeLength="1038.60" waitingTime="0.00" waitingCount="0" stopTime="0.00" timeLoss="7.68" rerouteNo="0" devices="tripinfo_0" vType="vehicle.audi.a2" speedFactor="1.06" vaporized=""/>
    <tripinfo id="simulated1713832398279761027" depart="206.00" departLane="-1583_1" departPos="4.49" departSpeed="0.00" departDelay="-1.00" arrival="292.00" arrivalLane="-1545_1" arrivalPos="1020.48" arrivalSpeed="13.54" duration="86.00" routeLength="1104.03" waitingTime="0.00" waitingCount="0" stopTime="0.00" timeLoss="9.89" rerouteNo="0" devices="tripinfo_simulated1713832398279761027" vType="vehicle.audi.a2" speedFactor="1.06" vaporized=""/>
    <tripinfo id="simulated1713832424363217205" depart="247.00" departLane="-1457_1" departPos="0.25" departSpeed="0.00" departDelay="-2.00" arrival="336.00" arrivalLane="-1545_1" arrivalPos="1020.48" arrivalSpeed="12.35" duration="89.00" routeLength="1057.13" waitingTime="0.00" waitingCount="0" stopTime="0.00" timeLoss="7.77" rerouteNo="0" devices="tripinfo_simulated1713832424363217205" vType="vehicle.audi.a2" speedFactor="0.94" vaporized=""/>
    <tripinfo id="simulated1713832459206701520" depart="303.00" departLane=":89_0_0" departPos="5.74" departSpeed="0.00" departDelay="-2.00" arrival="387.00" arrivalLane="-1545_1" arrivalPos="1020.48" arrivalSpeed="13.73" duration="84.00" routeLength="1068.66" waitingTime="0.00" waitingCount="0" stopTime="0.00" timeLoss="7.04" rerouteNo="0" devices="tripinfo_simulated1713832459206701520" vType="vehicle.audi.a2" speedFactor="1.01" vaporized=""/>
</tripinfos>
