<?xml version="1.0" encoding="UTF-8"?>

<!-- generated on 2024-05-01 02:16:17 by Eclipse SUMO GUI Version 1.12.0
<configuration xmlns:xsi="http://www.w3.org/2001/XMLSchema-instance" xsi:noNamespaceSchemaLocation="http://sumo.dlr.de/xsd/sumoConfiguration.xsd">

    <input>
        <net-file value="../Adapters/co_simulation/sumo_configuration/simple-map/UA.net.xml"/>
        <route-files value="../Adapters/co_simulation/sumo_configuration/simple-map/carlavtypes.rou.xml,../Adapters/co_simulation/sumo_configuration/simple-map/simple-map.rou.xml"/>
    </input>

    <output>
        <tripinfo-output value="tripinfo.xml"/>
    </output>

    <traci_server>
        <remote-port value="60535"/>
        <num-clients value="1"/>
    </traci_server>

    <gui_only>
        <gui-settings-file value="../Adapters/co_simulation/sumo_configuration/simple-map/simple-map.view.xml"/>
    </gui_only>

</configuration>
-->

<tripinfos xmlns:xsi="http://www.w3.org/2001/XMLSchema-instance" xsi:noNamespaceSchemaLocation="http://sumo.dlr.de/xsd/tripinfo_file.xsd">
    <tripinfo id="0" depart="3.00" departLane="-1466_1" departPos="5.34" departSpeed="0.00" departDelay="0.00" arrival="12.00" arrivalLane="-1465_1" arrivalPos="11.38" arrivalSpeed="13.75" duration="9.00" routeLength="73.18" waitingTime="0.00" waitingCount="0" stopTime="0.00" timeLoss="3.49" rerouteNo="0" devices="tripinfo_0" vType="vehicle.dodge.charger_police_2020" speedFactor="1.06" vaporized=""/>
    <tripinfo id="random_1714530755679644754" depart="72.00" departLane="-1489_0" departPos="0.20" departSpeed="0.00" departDelay="0.00" arrival="75.00" arrivalLane="-1502_0" arrivalPos="0.20" arrivalSpeed="5.62" duration="3.00" routeLength="7.53" waitingTime="0.00" waitingCount="0" stopTime="0.00" timeLoss="2.04" rerouteNo="0" devices="tripinfo_random_1714530755679644754" vType="vehicle.dodge.charger_2020" speedFactor="0.98" vaporized=""/>
    <tripinfo id="random_1714530756494715863" depart="74.00" departLane="-1494_1" departPos="0.20" departSpeed="0.00" departDelay="0.00" arrival="75.00" arrivalLane="-1494_1" arrivalPos="0.20" arrivalSpeed="1.55" duration="1.00" routeLength="0.00" waitingTime="0.00" waitingCount="0" stopTime="0.00" timeLoss="0.94" rerouteNo="0" devices="tripinfo_random_1714530756494715863" vType="vehicle.ford.crown" speedFactor="0.93" vaporized=""/>
    <tripinfo id="random_1714530757151789004" depart="78.00" departLane="-1559_1" departPos="0.56" departSpeed="0.00" departDelay="0.00" arrival="82.00" arrivalLane="-1558_1" arrivalPos="8.19" arrivalSpeed="7.09" duration="4.00" routeLength="17.34" waitingTime="0.00" waitingCount="0" stopTime="0.00" timeLoss="1.99" rerouteNo="0" devices="tripinfo_random_1714530757151789004" vType="vehicle.tesla.cybertruck" speedFactor="0.97" vaporized=""/>
    <tripinfo id="random_1714530753829492979" depart="67.00" departLane="-1540_1" departPos="4.89" departSpeed="0.00" departDelay="0.00" arrival="102.00" arrivalLane="-1595_1" arrivalPos="20.58" arrivalSpeed="12.29" duration="35.00" routeLength="313.68" waitingTime="0.00" waitingCount="0" stopTime="0.00" timeLoss="10.42" rerouteNo="0" devices="tripinfo_random_1714530753829492979" vType="vehicle.tesla.model3" speedFactor="0.93" vaporized=""/>
    <tripinfo id="random_1714530758684401162" depart="97.00" departLane="-1647_1" departPos="0.20" departSpeed="0.00" departDelay="12.00" arrival="111.00" arrivalLane="-1439_1" arrivalPos="0.20" arrivalSpeed="6.87" duration="14.00" routeLength="111.51" waitingTime="0.00" waitingCount="0" stopTime="0.00" timeLoss="4.71" rerouteNo="0" devices="tripinfo_random_1714530758684401162" vType="vehicle.carlamotors.european_hgv" speedFactor="1.09" vaporized=""/>
    <tripinfo id="random_1714530763964962017" depart="115.00" departLane="-1466_1" departPos="5.13" departSpeed="0.00" departDelay="0.00" arrival="122.00" arrivalLane="-1466_1" arrivalPos="53.23" arrivalSpeed="12.47" duration="7.00" routeLength="48.10" waitingTime="0.00" waitingCount="0" stopTime="0.00" timeLoss="2.88" rerouteNo="0" devices="tripinfo_random_1714530763964962017" vType="vehicle.mercedes.coupe" speedFactor="0.94" vaporized=""/>
    <tripinfo id="random_1714530764475470103" depart="118.00" departLane="-1551_1" departPos="5.13" departSpeed="0.00" departDelay="0.00" arrival="134.00" arrivalLane="-1499_0" arrivalPos="0.20" arrivalSpeed="8.53" duration="16.00" routeLength="124.12" waitingTime="0.00" waitingCount="0" stopTime="0.00" timeLoss="9.76" rerouteNo="0" devices="tripinfo_random_1714530764475470103" vType="vehicle.mercedes.coupe" speedFactor="1.07" vaporized=""/>
    <tripinfo id="random_1714530763283902436" depart="111.00" departLane="-1455_1" departPos="3.16" departSpeed="0.00" departDelay="0.00" arrival="137.00" arrivalLane="-1435_1" arrivalPos="47.64" arrivalSpeed="13.04" duration="26.00" routeLength="242.06" waitingTime="0.00" waitingCount="0" stopTime="0.00" timeLoss="7.95" rerouteNo="0" devices="tripinfo_random_1714530763283902436" vType="vehicle.mini.cooper_s_2021" speedFactor="0.97" vaporized=""/>
    <tripinfo id="random_1714530762944081646" depart="109.00" departLane="-1487_0" departPos="0.20" departSpeed="0.00" departDelay="0.00" arrival="141.00" arrivalLane="-1548_1" arrivalPos="69.24" arrivalSpeed="11.70" duration="32.00" routeLength="300.01" waitingTime="0.00" waitingCount="0" stopTime="0.00" timeLoss="6.43" rerouteNo="0" devices="tripinfo_random_1714530762944081646" vType="vehicle.lincoln.mkz_2020" speedFactor="0.91" vaporized=""/>
    <tripinfo id="random_1714530755303355157" depart="70.00" departLane="-1584_1" departPos="2.29" departSpeed="0.00" departDelay="0.00" arrival="144.00" arrivalLane="-1667_1" arrivalPos="0.20" arrivalSpeed="5.66" duration="74.00" routeLength="663.08" waitingTime="0.00" waitingCount="0" stopTime="0.00" timeLoss="15.48" rerouteNo="0" devices="tripinfo_random_1714530755303355157" vType="vehicle.yamaha.yzf" speedFactor="0.94" vaporized=""/>
    <tripinfo id="random_1714530758026408394" depart="81.00" departLane="-1619_1" departPos="1.92" departSpeed="0.00" departDelay="0.00" arrival="147.00" arrivalLane="-1515_1" arrivalPos="88.18" arrivalSpeed="12.21" duration="66.00" routeLength="657.43" waitingTime="3.00" waitingCount="1" stopTime="0.00" timeLoss="19.18" rerouteNo="0" devices="tripinfo_random_1714530758026408394" vType="vehicle.vespa.zx125" speedFactor="1.03" vaporized=""/>
    <tripinfo id="random_1714530761241299093" depart="99.00" departLane="-1559_1" departPos="0.56" departSpeed="0.00" departDelay="0.00" arrival="150.00" arrivalLane="-1510_1" arrivalPos="0.93" arrivalSpeed="8.79" duration="51.00" routeLength="258.64" waitingTime="8.00" waitingCount="1" stopTime="0.00" timeLoss="26.33" rerouteNo="0" devices="tripinfo_random_1714530761241299093" vType="vehicle.mini.cooper_s" speedFactor="0.94" vaporized=""/>
    <tripinfo id="random_1714530753450876881" depart="65.00" departLane="-1616_2" departPos="1.70" departSpeed="0.00" departDelay="0.00" arrival="152.00" arrivalLane="-1511_1" arrivalPos="0.20" arrivalSpeed="5.50" duration="87.00" routeLength="441.13" waitingTime="0.00" waitingCount="0" stopTime="0.00" timeLoss="6.65" rerouteNo="0" devices="tripinfo_random_1714530753450876881" vType="DEFAULT_BIKETYPE" speedFactor="1.09" vaporized=""/>
    <tripinfo id="random_1714530762089538468" depart="104.00" departLane="-1619_1" departPos="4.09" departSpeed="0.00" departDelay="0.00" arrival="157.00" arrivalLane="-1564_1" arrivalPos="56.13" arrivalSpeed="13.43" duration="53.00" routeLength="586.84" waitingTime="0.00" waitingCount="0" stopTime="0.00" timeLoss="9.54" rerouteNo="0" devices="tripinfo_random_1714530762089538468" vType="vehicle.citroen.c3" speedFactor="0.97" vaporized=""/>
    <tripinfo id="random_1714530748791396357" depart="57.00" departLane="-1640_0" departPos="2.14" departSpeed="0.00" departDelay="0.00" arrival="160.00" arrivalLane="-1571_1" arrivalPos="58.33" arrivalSpeed="9.96" duration="103.00" routeLength="452.66" waitingTime="61.00" waitingCount="1" stopTime="0.00" timeLoss="70.73" rerouteNo="0" devices="tripinfo_random_1714530748791396357" vType="vehicle.kawasaki.ninja" speedFactor="1.01" vaporized=""/>
    <tripinfo id="random_1714530760562552113" depart="95.00" departLane="-1579_1" departPos="5.34" departSpeed="0.00" departDelay="0.00" arrival="164.00" arrivalLane="-1577_1" arrivalPos="38.25" arrivalSpeed="14.40" duration="69.00" routeLength="489.57" waitingTime="13.00" waitingCount="1" stopTime="0.00" timeLoss="34.79" rerouteNo="0" devices="tripinfo_random_1714530760562552113" vType="vehicle.dodge.charger_police_2020" speedFactor="1.08" vaporized=""/>
    <tripinfo id="random_1714530760731579108" depart="100.00" departLane="-1537_1" departPos="4.96" departSpeed="0.00" departDelay="3.00" arrival="170.00" arrivalLane="-1628_1" arrivalPos="30.67" arrivalSpeed="12.92" duration="70.00" routeLength="456.55" waitingTime="17.00" waitingCount="1" stopTime="0.00" timeLoss="32.73" rerouteNo="0" devices="tripinfo_random_1714530760731579108" vType="vehicle.audi.etron" speedFactor="0.94" vaporized=""/>
    <tripinfo id="random_1714530756490557462" depart="74.00" departLane="-1617_1" departPos="4.61" departSpeed="0.00" departDelay="0.00" arrival="178.00" arrivalLane="-1598_1" arrivalPos="99.47" arrivalSpeed="11.53" duration="104.00" routeLength="635.92" waitingTime="32.00" waitingCount="4" stopTime="0.00" timeLoss="63.88" rerouteNo="0" devices="tripinfo_random_1714530756490557462" vType="vehicle.toyota.prius" speedFactor="1.13" vaporized=""/>
    <tripinfo id="random_1714530763457967333" depart="112.00" departLane="-1516_1" departPos="4.28" departSpeed="0.00" departDelay="0.00" arrival="185.00" arrivalLane="-1629_1" arrivalPos="26.02" arrivalSpeed="10.97" duration="73.00" routeLength="530.80" waitingTime="9.00" waitingCount="1" stopTime="0.00" timeLoss="28.91" rerouteNo="0" devices="tripinfo_random_1714530763457967333" vType="vehicle.audi.tt" speedFactor="0.93" vaporized=""/>
    <tripinfo id="random_1714530758031143096" depart="82.00" departLane="-1579_1" departPos="6.47" departSpeed="0.00" departDelay="0.00" arrival="187.00" arrivalLane="-1572_1" arrivalPos="59.16" arrivalSpeed="10.31" duration="105.00" routeLength="807.32" waitingTime="18.00" waitingCount="1" stopTime="0.00" timeLoss="39.74" rerouteNo="0" devices="tripinfo_random_1714530758031143096" vType="vehicle.ford.ambulance" speedFactor="0.96" vaporized=""/>
    <tripinfo id="random_1714530758244044015" depart="82.00" departLane="-1627_2" departPos="5.46" departSpeed="0.00" departDelay="0.00" arrival="187.00" arrivalLane="-1638_1" arrivalPos="190.89" arrivalSpeed="14.77" duration="105.00" routeLength="922.32" waitingTime="18.00" waitingCount="1" stopTime="0.00" timeLoss="43.28" rerouteNo="0" devices="tripinfo_random_1714530758244044015" vType="vehicle.chevrolet.impala" speedFactor="1.09" vaporized=""/>
    <tripinfo id="random_1714530762608649358" depart="107.00" departLane="-1506_1" departPos="1.92" departSpeed="0.00" departDelay="0.00" arrival="187.00" arrivalLane="-1526_0" arrivalPos="109.04" arrivalSpeed="24.74" duration="80.00" routeLength="827.54" waitingTime="0.00" waitingCount="0" stopTime="0.00" timeLoss="15.67" rerouteNo="0" devices="tripinfo_random_1714530762608649358" vType="vehicle.vespa.zx125" speedFactor="0.92" vaporized=""/>
    <tripinfo id="random_1714530750030923503" depart="61.00" departLane="-1546_1" departPos="5.67" departSpeed="0.00" departDelay="0.00" arrival="188.00" arrivalLane="-1574_1" arrivalPos="251.06" arrivalSpeed="11.22" duration="127.00" routeLength="1202.92" waitingTime="0.00" waitingCount="0" stopTime="0.00" timeLoss="16.41" rerouteNo="0" devices="tripinfo_random_1714530750030923503" vType="vehicle.nissan.patrol_2021" speedFactor="0.83" vaporized=""/>
    <tripinfo id="random_1714530759368638545" depart="88.00" departLane="-1516_1" departPos="5.07" departSpeed="0.00" departDelay="0.00" arrival="204.00" arrivalLane="-1586_1" arrivalPos="132.69" arrivalSpeed="10.13" duration="116.00" routeLength="864.00" waitingTime="24.00" waitingCount="2" stopTime="0.00" timeLoss="49.14" rerouteNo="0" devices="tripinfo_random_1714530759368638545" vType="vehicle.dodge.charger_police" speedFactor="1.00" vaporized=""/>
    <tripinfo id="random_1714530761920939273" depart="104.00" departLane="-1636_1" departPos="5.34" departSpeed="0.00" departDelay="0.00" arrival="211.00" arrivalLane="-1432_1" arrivalPos="132.51" arrivalSpeed="11.11" duration="107.00" routeLength="812.68" waitingTime="14.00" waitingCount="3" stopTime="0.00" timeLoss="44.57" rerouteNo="0" devices="tripinfo_random_1714530761920939273" vType="vehicle.dodge.charger_police_2020" speedFactor="1.02" vaporized=""/>
    <tripinfo id="random_1714530763456178232" depart="112.00" departLane="-1591_1" departPos="4.77" departSpeed="0.00" departDelay="0.00" arrival="216.00" arrivalLane="-1494_1" arrivalPos="0.20" arrivalSpeed="5.47" duration="104.00" routeLength="1122.18" waitingTime="2.00" waitingCount="1" stopTime="0.00" timeLoss="25.72" rerouteNo="0" devices="tripinfo_random_1714530763456178232" vType="vehicle.mercedes.coupe_2020" speedFactor="1.06" vaporized=""/>
    <tripinfo id="random_1714530756709270818" depart="76.00" departLane="-1628_1" departPos="6.37" departSpeed="0.00" departDelay="0.00" arrival="221.00" arrivalLane="-1391_1" arrivalPos="183.09" arrivalSpeed="9.64" duration="145.00" routeLength="1308.51" waitingTime="26.00" waitingCount="2" stopTime="0.00" timeLoss="58.42" rerouteNo="0" devices="tripinfo_random_1714530756709270818" vType="vehicle.tesla.cybertruck" speedFactor="1.01" vaporized=""/>
    <tripinfo id="random_1714530759366485244" depart="88.00" departLane="-1433_1" departPos="3.91" departSpeed="0.00" departDelay="0.00" arrival="223.00" arrivalLane="-1435_1" arrivalPos="47.64" arrivalSpeed="15.05" duration="135.00" routeLength="317.64" waitingTime="101.00" waitingCount="1" stopTime="0.00" timeLoss="116.20" rerouteNo="0" devices="tripinfo_random_1714530759366485244" vType="vehicle.mini.cooper_s" speedFactor="1.17" vaporized=""/>
    <tripinfo id="random_1714530760389871216" depart="95.00" departLane="-1632_1" departPos="5.11" departSpeed="0.00" departDelay="0.00" arrival="228.00" arrivalLane="-1551_1" arrivalPos="87.30" arrivalSpeed="19.92" duration="133.00" routeLength="1510.07" waitingTime="0.00" waitingCount="0" stopTime="0.00" timeLoss="24.51" rerouteNo="0" devices="tripinfo_random_1714530760389871216" vType="vehicle.dodge.charger_2020" speedFactor="0.97" vaporized=""/>
    <tripinfo id="random_1714530754567369968" depart="69.00" departLane="-1612_1" departPos="3.97" departSpeed="0.00" departDelay="0.00" arrival="233.00" arrivalLane="-1633_1" arrivalPos="11.38" arrivalSpeed="13.05" duration="164.00" routeLength="1798.61" waitingTime="0.00" waitingCount="0" stopTime="0.00" timeLoss="19.32" rerouteNo="0" devices="tripinfo_random_1714530754567369968" vType="vehicle.jeep.wrangler_rubicon" speedFactor="0.94" vaporized=""/>
    <tripinfo id="random_1714530763963524416" depart="115.00" departLane="-1616_2" departPos="2.45" departSpeed="0.00" departDelay="0.00" arrival="235.00" arrivalLane="-1599_1" arrivalPos="63.52" arrivalSpeed="12.26" duration="120.00" routeLength="1209.81" waitingTime="0.00" waitingCount="0" stopTime="0.00" timeLoss="21.70" rerouteNo="0" devices="tripinfo_random_1714530763963524416" vType="vehicle.harley-davidson.low_rider" speedFactor="1.07" vaporized=""/>
    <tripinfo id="random_1714530758857582359" depart="85.00" departLane="-1581_1" departPos="1.70" departSpeed="0.00" departDelay="0.00" arrival="243.00" arrivalLane="-1569_1" arrivalPos="153.10" arrivalSpeed="5.04" duration="158.00" routeLength="697.92" waitingTime="17.00" waitingCount="1" stopTime="0.00" timeLoss="31.67" rerouteNo="0" devices="tripinfo_random_1714530758857582359" vType="DEFAULT_BIKETYPE" speedFactor="1.00" vaporized=""/>
    <tripinfo id="random_1714530749409439343" depart="59.00" departLane="-1517_1" departPos="5.13" departSpeed="0.00" departDelay="0.00" arrival="245.00" arrivalLane="-1583_2" arrivalPos="0.20" arrivalSpeed="5.91" duration="186.00" routeLength="1080.96" waitingTime="83.00" waitingCount="1" stopTime="0.00" timeLoss="110.61" rerouteNo="0" devices="tripinfo_random_1714530749409439343" vType="vehicle.mercedes.coupe" speedFactor="1.03" vaporized=""/>
    <tripinfo id="random_1714530760899994302" depart="98.00" departLane="-1519_1" departPos="6.37" departSpeed="0.00" departDelay="0.00" arrival="258.00" arrivalLane="-1616_2" arrivalPos="109.27" arrivalSpeed="6.56" duration="160.00" routeLength="1118.47" waitingTime="2.00" waitingCount="1" stopTime="0.00" timeLoss="51.78" rerouteNo="0" devices="tripinfo_random_1714530760899994302" vType="vehicle.tesla.cybertruck" speedFactor="0.91" vaporized=""/>
    <tripinfo id="random_1714530755675010053" depart="73.00" departLane="-1561_1" departPos="1.09" departSpeed="0.00" departDelay="2.00" arrival="268.00" arrivalLane="-1572_1" arrivalPos="59.16" arrivalSpeed="10.10" duration="195.00" routeLength="651.84" waitingTime="93.00" waitingCount="4" stopTime="0.00" timeLoss="136.41" rerouteNo="0" devices="tripinfo_random_1714530755675010053" vType="vehicle.dodge.charger_2020" speedFactor="1.01" vaporized=""/>
    <tripinfo id="random_1714530759542311542" depart="90.00" departLane="-1624_1" departPos="5.30" departSpeed="0.00" departDelay="0.00" arrival="268.00" arrivalLane="-1498_0" arrivalPos="0.20" arrivalSpeed="6.86" duration="178.00" routeLength="2168.06" waitingTime="0.00" waitingCount="0" stopTime="0.00" timeLoss="19.23" rerouteNo="0" devices="tripinfo_random_1714530759542311542" vType="vehicle.carlamotors.carlacola" speedFactor="1.00" vaporized=""/>
    <tripinfo id="random_1714530753080221686" depart="64.00" departLane="-1555_1" departPos="5.30" departSpeed="0.00" departDelay="0.00" arrival="272.00" arrivalLane="-1504_2" arrivalPos="37.65" arrivalSpeed="8.92" duration="208.00" routeLength="1295.18" waitingTime="62.00" waitingCount="1" stopTime="0.00" timeLoss="117.23" rerouteNo="0" devices="tripinfo_random_1714530753080221686" vType="vehicle.carlamotors.carlacola" speedFactor="0.97" vaporized=""/>
    <tripinfo id="random_1714530760048715525" depart="92.00" departLane="-1489_0" departPos="0.20" departSpeed="0.00" departDelay="0.00" arrival="272.00" arrivalLane="-1421_1" arrivalPos="172.47" arrivalSpeed="11.22" duration="180.00" routeLength="1174.94" waitingTime="22.00" waitingCount="4" stopTime="0.00" timeLoss="84.72" rerouteNo="0" devices="tripinfo_random_1714530760048715525" vType="vehicle.toyota.prius" speedFactor="0.90" vaporized=""/>
    <tripinfo id="random_1714530755314609860" depart="71.00" departLane="-1482_1" departPos="0.33" departSpeed="0.00" departDelay="0.00" arrival="276.00" arrivalLane="-1594_1" arrivalPos="0.20" arrivalSpeed="7.44" duration="205.00" routeLength="849.08" waitingTime="86.00" waitingCount="1" stopTime="0.00" timeLoss="143.36" rerouteNo="0" devices="tripinfo_random_1714530755314609860" vType="vehicle.micro.microlino" speedFactor="1.02" vaporized=""/>
    <tripinfo id="random_1714530754199508474" depart="68.00" departLane="-1534_1" departPos="5.47" departSpeed="0.00" departDelay="0.00" arrival="278.00" arrivalLane="-1609_1" arrivalPos="60.92" arrivalSpeed="11.46" duration="210.00" routeLength="1658.71" waitingTime="23.00" waitingCount="1" stopTime="0.00" timeLoss="56.49" rerouteNo="0" devices="tripinfo_random_1714530754199508474" vType="vehicle.ford.crown" speedFactor="0.88" vaporized=""/>
    <tripinfo id="random_1714530751270799721" depart="63.00" departLane="-1433_1" departPos="4.29" departSpeed="0.00" departDelay="0.00" arrival="291.00" arrivalLane="-1622_2" arrivalPos="88.55" arrivalSpeed="4.39" duration="228.00" routeLength="1077.03" waitingTime="93.00" waitingCount="4" stopTime="0.00" timeLoss="153.71" rerouteNo="0" devices="tripinfo_random_1714530751270799721" vType="vehicle.seat.leon" speedFactor="1.05" vaporized=""/>
    <tripinfo id="random_1714530763454471732" depart="112.00" departLane="-1576_1" departPos="2.14" departSpeed="0.00" departDelay="0.00" arrival="296.00" arrivalLane="-1521_1" arrivalPos="0.20" arrivalSpeed="7.90" duration="184.00" routeLength="1484.50" waitingTime="38.00" waitingCount="3" stopTime="0.00" timeLoss="77.73" rerouteNo="0" devices="tripinfo_random_1714530763454471732" vType="vehicle.kawasaki.ninja" speedFactor="1.01" vaporized=""/>
    <tripinfo id="random_1714530764307056109" depart="117.00" departLane="-1530_1" departPos="5.67" departSpeed="0.00" departDelay="0.00" arrival="302.00" arrivalLane="-1556_1" arrivalPos="74.30" arrivalSpeed="12.18" duration="185.00" routeLength="1678.31" waitingTime="4.00" waitingCount="2" stopTime="0.00" timeLoss="63.81" rerouteNo="0" devices="tripinfo_random_1714530764307056109" vType="vehicle.nissan.patrol_2021" speedFactor="1.15" vaporized=""/>
    <tripinfo id="random_1714530756005131837" depart="73.00" departLane="-1567_1" departPos="4.61" departSpeed="0.00" departDelay="0.00" arrival="303.00" arrivalLane="-1638_1" arrivalPos="190.89" arrivalSpeed="11.57" duration="230.00" routeLength="1053.47" waitingTime="85.00" waitingCount="2" stopTime="0.00" timeLoss="132.48" rerouteNo="0" devices="tripinfo_random_1714530756005131837" vType="vehicle.toyota.prius" speedFactor="0.87" vaporized=""/>
    <tripinfo id="random_1714530754935228363" depart="70.00" departLane="-1452_1" departPos="5.07" departSpeed="0.00" departDelay="0.00" arrival="304.00" arrivalLane="-1567_1" arrivalPos="70.17" arrivalSpeed="13.14" duration="234.00" routeLength="2876.15" waitingTime="0.00" waitingCount="0" stopTime="0.00" timeLoss="23.50" rerouteNo="0" devices="tripinfo_random_1714530754935228363" vType="vehicle.dodge.charger_police" speedFactor="1.00" vaporized=""/>
    <tripinfo id="random_1714530759364721043" depart="88.00" departLane="-1585_1" departPos="4.65" departSpeed="0.00" departDelay="0.00" arrival="306.00" arrivalLane="-1568_1" arrivalPos="413.96" arrivalSpeed="10.65" duration="218.00" routeLength="2345.35" waitingTime="0.00" waitingCount="0" stopTime="0.00" timeLoss="17.20" rerouteNo="0" devices="tripinfo_random_1714530759364721043" vType="vehicle.mini.cooper_s_2021" speedFactor="0.85" vaporized=""/>
    <tripinfo id="random_1714530760730741807" depart="96.00" departLane="-1642_1" departPos="4.61" departSpeed="0.00" departDelay="0.00" arrival="308.00" arrivalLane="-1444_1" arrivalPos="63.36" arrivalSpeed="12.98" duration="212.00" routeLength="1742.26" waitingTime="13.00" waitingCount="1" stopTime="0.00" timeLoss="69.60" rerouteNo="0" devices="tripinfo_random_1714530760730741807" vType="vehicle.toyota.prius" speedFactor="0.99" vaporized=""/>
    <tripinfo id="random_1714530760898571101" depart="97.00" departLane="-1491_1" departPos="1.66" departSpeed="0.00" departDelay="0.00" arrival="311.00" arrivalLane="-1635_1" arrivalPos="70.06" arrivalSpeed="11.99" duration="214.00" routeLength="1256.05" waitingTime="42.00" waitingCount="4" stopTime="0.00" timeLoss="105.23" rerouteNo="0" devices="tripinfo_random_1714530760898571101" vType="vehicle.dodge.charger_police_2020" speedFactor="0.88" vaporized=""/>
    <tripinfo id="random_1714530764305185408" depart="117.00" departLane="-1445_1" departPos="3.97" departSpeed="0.00" departDelay="0.00" arrival="312.00" arrivalLane="-1408_1" arrivalPos="0.20" arrivalSpeed="5.41" duration="195.00" routeLength="812.19" waitingTime="77.00" waitingCount="3" stopTime="0.00" timeLoss="135.50" rerouteNo="0" devices="tripinfo_random_1714530764305185408" vType="vehicle.jeep.wrangler_rubicon" speedFactor="1.02" vaporized=""/>
    <tripinfo id="random_1714530761749545677" depart="102.00" departLane="-1599_1" departPos="5.07" departSpeed="0.00" departDelay="0.00" arrival="313.00" arrivalLane="-1629_1" arrivalPos="26.02" arrivalSpeed="12.05" duration="211.00" routeLength="1130.82" waitingTime="87.00" waitingCount="2" stopTime="0.00" timeLoss="128.58" rerouteNo="0" devices="tripinfo_random_1714530761749545677" vType="vehicle.dodge.charger_police" speedFactor="1.00" vaporized=""/>
    <tripinfo id="random_1714530762260352763" depart="105.00" departLane="-1663_1" departPos="8.57" departSpeed="0.00" departDelay="0.00" arrival="314.00" arrivalLane="-1534_1" arrivalPos="117.02" arrivalSpeed="12.82" duration="209.00" routeLength="1028.24" waitingTime="75.00" waitingCount="3" stopTime="0.00" timeLoss="127.64" rerouteNo="0" devices="tripinfo_random_1714530762260352763" vType="vehicle.carlamotors.firetruck" speedFactor="1.00" vaporized=""/>
    <tripinfo id="random_1714530752513134040" depart="64.00" departLane="-1456_1" departPos="4.65" departSpeed="0.00" departDelay="0.00" arrival="315.00" arrivalLane="-1598_1" arrivalPos="99.47" arrivalSpeed="11.89" duration="251.00" routeLength="1269.84" waitingTime="85.00" waitingCount="2" stopTime="0.00" timeLoss="138.56" rerouteNo="0" devices="tripinfo_random_1714530752513134040" vType="vehicle.mini.cooper_s_2021" speedFactor="0.89" vaporized=""/>
    <tripinfo id="random_1714530757144438100" depart="77.00" departLane="-1524_1" departPos="4.96" departSpeed="0.00" departDelay="0.00" arrival="316.00" arrivalLane="-1629_1" arrivalPos="26.02" arrivalSpeed="12.95" duration="239.00" routeLength="1025.01" waitingTime="94.00" waitingCount="3" stopTime="0.00" timeLoss="156.28" rerouteNo="0" devices="tripinfo_random_1714530757144438100" vType="vehicle.audi.etron" speedFactor="1.02" vaporized=""/>
    <tripinfo id="random_1714530759879827931" depart="92.00" departLane="-1543_1" departPos="8.04" departSpeed="0.00" departDelay="0.00" arrival="317.00" arrivalLane="-1432_1" arrivalPos="132.51" arrivalSpeed="10.07" duration="225.00" routeLength="1150.95" waitingTime="83.00" waitingCount="1" stopTime="0.00" timeLoss="121.92" rerouteNo="0" devices="tripinfo_random_1714530759879827931" vType="vehicle.carlamotors.european_hgv" speedFactor="1.00" vaporized=""/>
    <tripinfo id="random_1714530764473446602" depart="118.00" departLane="-1508_1" departPos="5.13" departSpeed="0.00" departDelay="0.00" arrival="321.00" arrivalLane="-1577_1" arrivalPos="38.25" arrivalSpeed="13.94" duration="203.00" routeLength="1320.16" waitingTime="69.00" waitingCount="1" stopTime="0.00" timeLoss="104.68" rerouteNo="0" devices="tripinfo_random_1714530764473446602" vType="vehicle.mercedes.coupe" speedFactor="1.03" vaporized=""/>
    <tripinfo id="random_1714530763452756131" depart="115.00" departLane="-1612_1" departPos="5.47" departSpeed="0.00" departDelay="3.00" arrival="325.00" arrivalLane="-1645_1" arrivalPos="257.55" arrivalSpeed="8.17" duration="210.00" routeLength="907.88" waitingTime="80.00" waitingCount="1" stopTime="0.00" timeLoss="142.27" rerouteNo="0" devices="tripinfo_random_1714530763452756131" vType="vehicle.ford.crown" speedFactor="0.89" vaporized=""/>
    <tripinfo id="random_1714530762090493368" depart="104.00" departLane="-1466_1" departPos="4.54" departSpeed="0.00" departDelay="0.00" arrival="328.00" arrivalLane="-1624_2" arrivalPos="43.33" arrivalSpeed="15.87" duration="224.00" routeLength="1821.59" waitingTime="58.00" waitingCount="4" stopTime="0.00" timeLoss="106.35" rerouteNo="0" devices="tripinfo_random_1714530762090493368" vType="vehicle.volkswagen.t2_2021" speedFactor="1.15" vaporized=""/>
    <tripinfo id="random_1714530753082164687" depart="65.00" departLane="-1524_1" departPos="5.55" departSpeed="0.00" departDelay="0.00" arrival="333.00" arrivalLane="-1544_1" arrivalPos="21.03" arrivalSpeed="9.22" duration="268.00" routeLength="2770.38" waitingTime="0.00" waitingCount="0" stopTime="0.00" timeLoss="26.36" rerouteNo="0" devices="tripinfo_random_1714530753082164687" vType="vehicle.carlamotors.european_hgv" speedFactor="0.86" vaporized=""/>
    <tripinfo id="random_1714530761583201484" depart="102.00" departLane="-1409_1" departPos="4.09" departSpeed="0.00" departDelay="0.00" arrival="334.00" arrivalLane="-1598_1" arrivalPos="99.47" arrivalSpeed="13.91" duration="232.00" routeLength="1357.89" waitingTime="57.00" waitingCount="3" stopTime="0.00" timeLoss="123.24" rerouteNo="0" devices="tripinfo_random_1714530761583201484" vType="vehicle.citroen.c3" speedFactor="1.01" vaporized=""/>
    <tripinfo id="random_1714530764983337963" depart="121.00" departLane="-1520_1" departPos="5.30" departSpeed="0.00" departDelay="0.00" arrival="334.00" arrivalLane="-1505_1" arrivalPos="0.20" arrivalSpeed="6.08" duration="213.00" routeLength="856.94" waitingTime="92.00" waitingCount="1" stopTime="0.00" timeLoss="144.64" rerouteNo="0" devices="tripinfo_random_1714530764983337963" vType="vehicle.carlamotors.carlacola" speedFactor="1.06" vaporized=""/>
    <tripinfo id="random_1714530762432641860" depart="106.00" departLane="-1461_1" departPos="4.54" departSpeed="0.00" departDelay="0.00" arrival="343.00" arrivalLane="-1544_1" arrivalPos="21.03" arrivalSpeed="11.74" duration="237.00" routeLength="2556.70" waitingTime="0.00" waitingCount="0" stopTime="0.00" timeLoss="25.16" rerouteNo="0" devices="tripinfo_random_1714530762432641860" vType="vehicle.volkswagen.t2_2021" speedFactor="0.89" vaporized=""/>
    <tripinfo id="random_1714530763631559831" depart="114.00" departLane="-1471_1" departPos="5.67" departSpeed="0.00" departDelay="0.00" arrival="347.00" arrivalLane="-1613_1" arrivalPos="154.44" arrivalSpeed="15.95" duration="233.00" routeLength="1623.50" waitingTime="69.00" waitingCount="1" stopTime="0.00" timeLoss="124.99" rerouteNo="0" devices="tripinfo_random_1714530763631559831" vType="vehicle.nissan.patrol_2021" speedFactor="1.18" vaporized=""/>
    <tripinfo id="random_1714530765669532747" depart="125.00" departLane="-1585_1" departPos="5.00" departSpeed="0.00" departDelay="0.00" arrival="349.00" arrivalLane="-1513_1" arrivalPos="41.87" arrivalSpeed="12.35" duration="224.00" routeLength="2528.20" waitingTime="0.00" waitingCount="0" stopTime="0.00" timeLoss="30.63" rerouteNo="0" devices="tripinfo_random_1714530765669532747" vType="vehicle.lincoln.mkz_2017" speedFactor="0.96" vaporized=""/>