<?xml version="1.0" encoding="UTF-8"?>

<!-- generated on 2024-04-30 04:49:45 by Eclipse SUMO GUI Version 1.12.0
<configuration xmlns:xsi="http://www.w3.org/2001/XMLSchema-instance" xsi:noNamespaceSchemaLocation="http://sumo.dlr.de/xsd/sumoConfiguration.xsd">

    <input>
        <net-file value="../Adapters/co_simulation/sumo_configuration/simple-map/UA.net.xml"/>
        <route-files value="../Adapters/co_simulation/sumo_configuration/simple-map/carlavtypes.rou.xml,../Adapters/co_simulation/sumo_configuration/simple-map/simple-map.rou.xml"/>
    </input>

    <output>
        <tripinfo-output value="tripinfo.xml"/>
    </output>

    <traci_server>
        <remote-port value="52269"/>
        <num-clients value="1"/>
    </traci_server>

    <gui_only>
        <gui-settings-file value="../Adapters/co_simulation/sumo_configuration/simple-map/simple-map.view.xml"/>
    </gui_only>

</configuration>
-->

<tripinfos xmlns:xsi="http://www.w3.org/2001/XMLSchema-instance" xsi:noNamespaceSchemaLocation="http://sumo.dlr.de/xsd/tripinfo_file.xsd">
    <tripinfo id="0" depart="3.00" departLane="-1466_1" departPos="5.34" departSpeed="0.00" departDelay="0.00" arrival="12.00" arrivalLane="-1465_1" arrivalPos="11.38" arrivalSpeed="13.75" duration="9.00" routeLength="73.18" waitingTime="0.00" waitingCount="0" stopTime="0.00" timeLoss="3.49" rerouteNo="0" devices="tripinfo_0" vType="vehicle.dodge.charger_police_2020" speedFactor="1.06" vaporized=""/>
    <tripinfo id="random_1714448990573200661" depart="9.00" departLane="-1476_1" departPos="2.31" departSpeed="0.00" departDelay="0.00" arrival="18.00" arrivalLane="-1476_1" arrivalPos="67.38" arrivalSpeed="13.57" duration="9.00" routeLength="65.08" waitingTime="0.00" waitingCount="0" stopTime="0.00" timeLoss="3.58" rerouteNo="0" devices="tripinfo_random_1714448990573200661" vType="vehicle.micro.microlino" speedFactor="1.06" vaporized="traci"/>
    <tripinfo id="random_1714448991810802186" depart="9.00" departLane="-1410_1" departPos="1.94" departSpeed="0.00" departDelay="0.00" arrival="18.00" arrivalLane=":20_2_1" arrivalPos="10.53" arrivalSpeed="5.04" duration="9.00" routeLength="29.50" waitingTime="0.00" waitingCount="0" stopTime="0.00" timeLoss="2.69" rerouteNo="0" devices="tripinfo_random_1714448991810802186" vType="vehicle.gazelle.omafiets" speedFactor="0.94" vaporized="traci"/>
    <tripinfo id="random_1714448991811721486" depart="9.00" departLane="-1523_1" departPos="5.10" departSpeed="0.00" departDelay="0.00" arrival="18.00" arrivalLane=":13_3_1" arrivalPos="7.70" arrivalSpeed="13.20" duration="9.00" routeLength="69.41" waitingTime="0.00" waitingCount="0" stopTime="0.00" timeLoss="3.05" rerouteNo="0" devices="tripinfo_random_1714448991811721486" vType="DEFAULT_VEHTYPE" speedFactor="1.01" vaporized="traci"/>
    <tripinfo id="random_1714448991812571486" depart="12.00" departLane="-1511_1" departPos="0.20" departSpeed="0.00" departDelay="0.00" arrival="18.00" arrivalLane=":101_1_0" arrivalPos="26.80" arrivalSpeed="5.78" duration="6.00" routeLength="26.80" waitingTime="0.00" waitingCount="0" stopTime="0.00" timeLoss="2.49" rerouteNo="0" devices="tripinfo_random_1714448991812571486" vType="vehicle.lincoln.mkz_2020" speedFactor="1.08" vaporized="traci"/>
    <tripinfo id="random_1714448993675573723" depart="13.00" departLane="-1537_1" departPos="1.76" departSpeed="0.00" departDelay="0.00" arrival="18.00" arrivalLane="-1537_1" arrivalPos="9.15" arrivalSpeed="3.02" duration="5.00" routeLength="7.40" waitingTime="0.00" waitingCount="0" stopTime="0.00" timeLoss="2.67" rerouteNo="0" devices="tripinfo_random_1714448993675573723" vType="vehicle.diamondback.century" speedFactor="1.03" vaporized="traci"/>
    <tripinfo id="random_1714448994298422536" depart="14.00" departLane="-1634_1" departPos="5.34" departSpeed="0.00" departDelay="0.00" arrival="18.00" arrivalLane="-1634_1" arrivalPos="14.57" arrivalSpeed="4.79" duration="4.00" routeLength="9.24" waitingTime="0.00" waitingCount="0" stopTime="0.00" timeLoss="2.20" rerouteNo="0" devices="tripinfo_random_1714448994298422536" vType="vehicle.dodge.charger_police_2020" speedFactor="0.83" vaporized="traci"/>
    <tripinfo id="random_1714448994914721948" depart="14.00" departLane="-1486_1" departPos="5.10" departSpeed="0.00" departDelay="0.00" arrival="18.00" arrivalLane="-1486_1" arrivalPos="18.92" arrivalSpeed="6.56" duration="4.00" routeLength="13.82" waitingTime="0.00" waitingCount="0" stopTime="0.00" timeLoss="2.05" rerouteNo="0" devices="tripinfo_random_1714448994914721948" vType="DEFAULT_VEHTYPE" speedFactor="1.05" vaporized="traci"/>
    <tripinfo id="random_1714448994921020648" depart="15.00" departLane="-1521_1" departPos="0.20" departSpeed="0.00" departDelay="0.00" arrival="18.00" arrivalLane="-1521_1" arrivalPos="0.20" arrivalSpeed="0.00" duration="3.00" routeLength="0.00" waitingTime="2.00" waitingCount="1" stopTime="0.00" timeLoss="2.00" rerouteNo="0" devices="tripinfo_random_1714448994921020648" vType="vehicle.dodge.charger_police" speedFactor="1.00" vaporized="traci"/>
    <tripinfo id="random_1714448995534793760" depart="15.00" departLane="-1609_2" departPos="4.89" departSpeed="0.00" departDelay="0.00" arrival="18.00" arrivalLane="-1609_2" arrivalPos="10.11" arrivalSpeed="3.56" duration="3.00" routeLength="5.22" waitingTime="0.00" waitingCount="0" stopTime="0.00" timeLoss="1.58" rerouteNo="0" devices="tripinfo_random_1714448995534793760" vType="vehicle.tesla.model3" speedFactor="0.89" vaporized="traci"/>
    <tripinfo id="random_1714449006080006116" depart="34.00" departLane="-1591_1" departPos="3.91" departSpeed="0.00" departDelay="0.00" arrival="49.00" arrivalLane="-1461_1" arrivalPos="56.91" arrivalSpeed="12.04" duration="15.00" routeLength="112.92" waitingTime="0.00" waitingCount="0" stopTime="0.00" timeLoss="4.93" rerouteNo="0" devices="tripinfo_random_1714449006080006116" vType="vehicle.mini.cooper_s" speedFactor="0.94" vaporized="traci"/>
    <tripinfo id="random_1714449007321105519" depart="35.00" departLane="-1603_1" departPos="0.20" departSpeed="0.00" departDelay="0.00" arrival="49.00" arrivalLane=":75_0_1" arrivalPos="3.11" arrivalSpeed="9.54" duration="14.00" routeLength="82.24" waitingTime="0.00" waitingCount="0" stopTime="0.00" timeLoss="3.55" rerouteNo="0" devices="tripinfo_random_1714449007321105519" vType="vehicle.volkswagen.t2_2021" speedFactor="0.86" vaporized="traci"/>
    <tripinfo id="random_1714449007940733920" depart="35.00" departLane="-1580_1" departPos="4.82" departSpeed="0.00" departDelay="0.00" arrival="49.00" arrivalLane="-1581_1" arrivalPos="42.19" arrivalSpeed="14.24" duration="14.00" routeLength="144.42" waitingTime="0.00" waitingCount="0" stopTime="0.00" timeLoss="3.47" rerouteNo="0" devices="tripinfo_random_1714449007940733920" vType="vehicle.ford.mustang" speedFactor="1.09" vaporized="traci"/>
    <tripinfo id="random_1714449007941751720" depart="36.00" departLane="-1494_1" departPos="0.20" departSpeed="0.00" departDelay="0.00" arrival="49.00" arrivalLane=":64_0_1" arrivalPos="5.16" arrivalSpeed="13.40" duration="13.00" routeLength="94.16" waitingTime="0.00" waitingCount="0" stopTime="0.00" timeLoss="3.59" rerouteNo="0" devices="tripinfo_random_1714449007941751720" vType="vehicle.dodge.charger_police_2020" speedFactor="1.03" vaporized="traci"/>
    <tripinfo id="random_1714449008566220622" depart="38.00" departLane="-1424_1" departPos="4.96" departSpeed="0.00" departDelay="0.00" arrival="49.00" arrivalLane="-1424_1" arrivalPos="103.06" arrivalSpeed="13.80" duration="11.00" routeLength="98.10" waitingTime="0.00" waitingCount="0" stopTime="0.00" timeLoss="3.26" rerouteNo="0" devices="tripinfo_random_1714449008566220622" vType="vehicle.audi.etron" speedFactor="1.05" vaporized="traci"/>
    <tripinfo id="random_1714449009802325024" depart="39.00" departLane="-1579_1" departPos="6.37" departSpeed="0.00" departDelay="0.00" arrival="49.00" arrivalLane="-1579_1" arrivalPos="86.14" arrivalSpeed="11.05" duration="10.00" routeLength="79.76" waitingTime="0.00" waitingCount="0" stopTime="0.00" timeLoss="3.89" rerouteNo="0" devices="tripinfo_random_1714449009802325024" vType="vehicle.tesla.cybertruck" speedFactor="1.12" vaporized="traci"/>
    <tripinfo id="random_1714449010429024026" depart="41.00" departLane="-1482_1" departPos="0.33" departSpeed="0.00" departDelay="0.00" arrival="49.00" arrivalLane="-1523_1" arrivalPos="35.66" arrivalSpeed="11.25" duration="8.00" routeLength="48.28" waitingTime="0.00" waitingCount="0" stopTime="0.00" timeLoss="2.75" rerouteNo="0" devices="tripinfo_random_1714449010429024026" vType="vehicle.mercedes.coupe_2020" speedFactor="0.99" vaporized="traci"/>
    <tripinfo id="random_1714449011667425427" depart="41.00" departLane="-1576_1" departPos="2.14" departSpeed="0.00" departDelay="0.00" arrival="49.00" arrivalLane=":69_0_1" arrivalPos="2.73" arrivalSpeed="5.09" duration="8.00" routeLength="60.67" waitingTime="0.00" waitingCount="0" stopTime="0.00" timeLoss="1.97" rerouteNo="0" devices="tripinfo_random_1714449011667425427" vType="vehicle.kawasaki.ninja" speedFactor="0.93" vaporized="traci"/>
    <tripinfo id="random_1714449011672519127" depart="42.00" departLane="-1434_1" departPos="0.20" departSpeed="0.00" departDelay="0.00" arrival="49.00" arrivalLane=":18_5_1" arrivalPos="7.16" arrivalSpeed="4.55" duration="7.00" routeLength="30.15" waitingTime="0.00" waitingCount="0" stopTime="0.00" timeLoss="1.12" rerouteNo="0" devices="tripinfo_random_1714449011672519127" vType="vehicle.yamaha.yzf" speedFactor="0.88" vaporized="traci"/>
    <tripinfo id="random_1714449012288117026" depart="42.00" departLane="-1609_1" departPos="4.29" departSpeed="0.00" departDelay="0.00" arrival="49.00" arrivalLane="-1609_1" arrivalPos="51.77" arrivalSpeed="12.06" duration="7.00" routeLength="47.47" waitingTime="0.00" waitingCount="0" stopTime="0.00" timeLoss="2.37" rerouteNo="0" devices="tripinfo_random_1714449012288117026" vType="vehicle.seat.leon" speedFactor="0.94" vaporized="traci"/>
    <tripinfo id="random_1714449012293422626" depart="44.00" departLane="-1625_1" departPos="3.81" departSpeed="0.00" departDelay="0.00" arrival="49.00" arrivalLane="-1625_1" arrivalPos="24.64" arrivalSpeed="8.63" duration="5.00" routeLength="20.83" waitingTime="0.00" waitingCount="0" stopTime="0.00" timeLoss="2.40" rerouteNo="0" devices="tripinfo_random_1714449012293422626" vType="vehicle.audi.a2" speedFactor="0.94" vaporized="traci"/>
    <tripinfo id="random_1714449013527032725" depart="45.00" departLane="-1635_2" departPos="4.54" departSpeed="0.00" departDelay="0.00" arrival="49.00" arrivalLane="-1635_2" arrivalPos="15.97" arrivalSpeed="5.34" duration="4.00" routeLength="11.43" waitingTime="0.00" waitingCount="0" stopTime="0.00" timeLoss="2.29" rerouteNo="0" devices="tripinfo_random_1714449013527032725" vType="vehicle.volkswagen.t2_2021" speedFactor="1.16" vaporized="traci"/>
    <tripinfo id="random_1714449014149062925" depart="46.00" departLane="-1627_2" departPos="2.31" departSpeed="0.00" departDelay="0.00" arrival="49.00" arrivalLane="-1627_2" arrivalPos="8.05" arrivalSpeed="3.57" duration="3.00" routeLength="5.74" waitingTime="0.00" waitingCount="0" stopTime="0.00" timeLoss="1.59" rerouteNo="0" devices="tripinfo_random_1714449014149062925" vType="vehicle.micro.microlino" speedFactor="1.02" vaporized="traci"/>
    <tripinfo id="random_1714449014769661424" depart="46.00" departLane="-1524_1" departPos="5.47" departSpeed="0.00" departDelay="0.00" arrival="49.00" arrivalLane=":79_0_1" arrivalPos="5.74" arrivalSpeed="3.81" duration="3.00" routeLength="5.83" waitingTime="0.00" waitingCount="0" stopTime="0.00" timeLoss="1.01" rerouteNo="0" devices="tripinfo_random_1714449014769661424" vType="vehicle.ford.crown" speedFactor="1.01" vaporized="traci"/>
    <tripinfo id="random_1714449014776962624" depart="47.00" departLane="-1394_1" departPos="1.92" departSpeed="0.00" departDelay="0.00" arrival="49.00" arrivalLane="-1394_1" arrivalPos="5.71" arrivalSpeed="3.79" duration="2.00" routeLength="3.79" waitingTime="0.00" waitingCount="0" stopTime="0.00" timeLoss="0.72" rerouteNo="0" devices="tripinfo_random_1714449014776962624" vType="vehicle.vespa.zx125" speedFactor="0.98" vaporized="traci"/>
    <tripinfo id="random_1714449015388319024" depart="47.00" departLane="-1558_1" departPos="6.47" departSpeed="0.00" departDelay="0.00" arrival="49.00" arrivalLane=":119_2_1" arrivalPos="0.29" arrivalSpeed="2.01" duration="2.00" routeLength="2.01" waitingTime="0.00" waitingCount="0" stopTime="0.00" timeLoss="0.84" rerouteNo="0" devices="tripinfo_random_1714449015388319024" vType="vehicle.ford.ambulance" speedFactor="0.89" vaporized="traci"/>
    <tripinfo id="random_1714449015395353324" depart="48.00" departLane="-1638_1" departPos="1.70" departSpeed="0.00" departDelay="0.00" arrival="49.00" arrivalLane="-1638_1" arrivalPos="1.70" arrivalSpeed="0.00" duration="1.00" routeLength="0.00" waitingTime="0.00" waitingCount="0" stopTime="0.00" timeLoss="0.00" rerouteNo="0" devices="tripinfo_random_1714449015395353324" vType="DEFAULT_BIKETYPE" speedFactor="0.83" vaporized="traci"/>
