<?xml version="1.0" encoding="UTF-8"?>

<!-- generated on 2024-04-30 21:37:10 by Eclipse SUMO GUI Version 1.12.0
<configuration xmlns:xsi="http://www.w3.org/2001/XMLSchema-instance" xsi:noNamespaceSchemaLocation="http://sumo.dlr.de/xsd/sumoConfiguration.xsd">

    <input>
        <net-file value="../Adapters/co_simulation/sumo_configuration/simple-map/UA.net.xml"/>
        <route-files value="../Adapters/co_simulation/sumo_configuration/simple-map/carlavtypes.rou.xml,../Adapters/co_simulation/sumo_configuration/simple-map/simple-map.rou.xml"/>
    </input>

    <output>
        <tripinfo-output value="tripinfo.xml"/>
    </output>

    <traci_server>
        <remote-port value="49611"/>
        <num-clients value="1"/>
    </traci_server>

    <gui_only>
        <gui-settings-file value="../Adapters/co_simulation/sumo_configuration/simple-map/simple-map.view.xml"/>
    </gui_only>

</configuration>
-->

<tripinfos xmlns:xsi="http://www.w3.org/2001/XMLSchema-instance" xsi:noNamespaceSchemaLocation="http://sumo.dlr.de/xsd/tripinfo_file.xsd">
    <tripinfo id="0" depart="3.00" departLane="-1466_1" departPos="5.34" departSpeed="0.00" departDelay="0.00" arrival="12.00" arrivalLane="-1465_1" arrivalPos="11.38" arrivalSpeed="13.75" duration="9.00" routeLength="73.18" waitingTime="0.00" waitingCount="0" stopTime="0.00" timeLoss="3.49" rerouteNo="0" devices="tripinfo_0" vType="vehicle.dodge.charger_police_2020" speedFactor="1.06" vaporized=""/>
    <tripinfo id="random_1714509471578618387" depart="64.00" departLane="-1504_1" departPos="4.29" departSpeed="0.00" departDelay="0.00" arrival="86.00" arrivalLane="-1525_1" arrivalPos="45.95" arrivalSpeed="13.57" duration="22.00" routeLength="190.62" waitingTime="0.00" waitingCount="0" stopTime="0.00" timeLoss="6.03" rerouteNo="0" devices="tripinfo_random_1714509471578618387" vType="vehicle.seat.leon" speedFactor="1.03" vaporized=""/>
    <tripinfo id="random_1714509486467984439" depart="89.00" departLane="-1667_1" departPos="0.20" departSpeed="0.00" departDelay="0.00" arrival="92.00" arrivalLane="-1482_1" arrivalPos="0.33" arrivalSpeed="5.04" duration="3.00" routeLength="5.22" waitingTime="0.00" waitingCount="0" stopTime="0.00" timeLoss="1.83" rerouteNo="0" devices="tripinfo_random_1714509486467984439" vType="DEFAULT_CONTAINERTYPE" speedFactor="1.00" vaporized=""/>
    <tripinfo id="random_1714509475298051226" depart="70.00" departLane="-1656_1" departPos="1.57" departSpeed="0.00" departDelay="0.00" arrival="111.00" arrivalLane="-1476_1" arrivalPos="253.15" arrivalSpeed="12.64" duration="41.00" routeLength="403.48" waitingTime="0.00" waitingCount="0" stopTime="0.00" timeLoss="8.70" rerouteNo="0" devices="tripinfo_random_1714509475298051226" vType="vehicle.lincoln.mkz_2020" speedFactor="0.94" vaporized=""/>
    <tripinfo id="random_1714509482126497698" depart="81.00" departLane="-1511_1" departPos="0.20" departSpeed="0.00" departDelay="0.00" arrival="114.00" arrivalLane="-1569_1" arrivalPos="153.10" arrivalSpeed="7.03" duration="33.00" routeLength="241.67" waitingTime="0.00" waitingCount="0" stopTime="0.00" timeLoss="16.09" rerouteNo="0" devices="tripinfo_random_1714509482126497698" vType="vehicle.mercedes.coupe" speedFactor="1.17" vaporized=""/>
    <tripinfo id="random_1714509485222276727" depart="86.00" departLane="-1626_2" departPos="8.04" departSpeed="0.00" departDelay="0.00" arrival="114.00" arrivalLane="-1409_1" arrivalPos="59.28" arrivalSpeed="13.39" duration="28.00" routeLength="301.04" waitingTime="0.00" waitingCount="0" stopTime="0.00" timeLoss="5.74" rerouteNo="0" devices="tripinfo_random_1714509485222276727" vType="vehicle.carlamotors.european_hgv" speedFactor="1.02" vaporized=""/>
    <tripinfo id="random_1714509472818585500" depart="66.00" departLane="-1528_1" departPos="1.70" departSpeed="0.00" departDelay="0.00" arrival="115.00" arrivalLane="-1526_0" arrivalPos="109.04" arrivalSpeed="5.27" duration="49.00" routeLength="240.50" waitingTime="0.00" waitingCount="0" stopTime="0.00" timeLoss="5.24" rerouteNo="0" devices="tripinfo_random_1714509472818585500" vType="DEFAULT_BIKETYPE" speedFactor="0.94" vaporized=""/>
    <tripinfo id="random_1714509479638763074" depart="77.00" departLane="-1550_1" departPos="4.54" departSpeed="0.00" departDelay="0.00" arrival="117.00" arrivalLane="-1560_1" arrivalPos="211.16" arrivalSpeed="15.12" duration="40.00" routeLength="397.89" waitingTime="0.00" waitingCount="0" stopTime="0.00" timeLoss="13.13" rerouteNo="0" devices="tripinfo_random_1714509479638763074" vType="vehicle.volkswagen.t2_2021" speedFactor="1.17" vaporized=""/>
    <tripinfo id="random_1714509484603888922" depart="85.00" departLane="-1444_1" departPos="4.82" departSpeed="0.00" departDelay="0.00" arrival="118.00" arrivalLane="-1637_1" arrivalPos="51.66" arrivalSpeed="12.02" duration="33.00" routeLength="279.37" waitingTime="0.00" waitingCount="0" stopTime="0.00" timeLoss="9.07" rerouteNo="0" devices="tripinfo_random_1714509484603888922" vType="vehicle.ford.mustang" speedFactor="0.91" vaporized=""/>
    <tripinfo id="random_1714509476540664640" depart="72.00" departLane="-1519_1" departPos="6.50" departSpeed="0.00" departDelay="0.00" arrival="125.00" arrivalLane="-1586_1" arrivalPos="132.69" arrivalSpeed="9.80" duration="53.00" routeLength="476.13" waitingTime="0.00" waitingCount="0" stopTime="0.00" timeLoss="9.53" rerouteNo="0" devices="tripinfo_random_1714509476540664640" vType="vehicle.carlamotors.firetruck" speedFactor="0.98" vaporized=""/>
    <tripinfo id="random_1714509484604842022" depart="85.00" departLane="-1593_1" departPos="2.29" departSpeed="0.00" departDelay="0.00" arrival="125.00" arrivalLane="-1557_1" arrivalPos="176.05" arrivalSpeed="10.41" duration="40.00" routeLength="428.62" waitingTime="0.00" waitingCount="0" stopTime="0.00" timeLoss="5.44" rerouteNo="0" devices="tripinfo_random_1714509484604842022" vType="vehicle.yamaha.yzf" speedFactor="0.91" vaporized=""/>
    <tripinfo id="random_1714509480883311986" depart="79.00" departLane="-1548_1" departPos="5.13" departSpeed="0.00" departDelay="0.00" arrival="134.00" arrivalLane="-1525_1" arrivalPos="45.95" arrivalSpeed="12.38" duration="55.00" routeLength="371.51" waitingTime="0.00" waitingCount="0" stopTime="0.00" timeLoss="22.10" rerouteNo="0" devices="tripinfo_random_1714509480883311986" vType="vehicle.mercedes.coupe" speedFactor="0.96" vaporized=""/>
    <tripinfo id="random_1714509475299996327" depart="70.00" departLane="-1658_1" departPos="4.61" departSpeed="0.00" departDelay="0.00" arrival="142.00" arrivalLane="-1607_1" arrivalPos="280.15" arrivalSpeed="15.09" duration="72.00" routeLength="847.88" waitingTime="0.00" waitingCount="0" stopTime="0.00" timeLoss="17.60" rerouteNo="0" devices="tripinfo_random_1714509475299996327" vType="vehicle.toyota.prius" speedFactor="1.16" vaporized=""/>
    <tripinfo id="random_1714509496391699583" depart="105.00" departLane="-1607_1" departPos="2.29" departSpeed="0.00" departDelay="0.00" arrival="144.00" arrivalLane="-1610_1" arrivalPos="123.98" arrivalSpeed="14.61" duration="39.00" routeLength="482.16" waitingTime="0.00" waitingCount="0" stopTime="0.00" timeLoss="5.95" rerouteNo="0" devices="tripinfo_random_1714509496391699583" vType="vehicle.yamaha.yzf" speedFactor="1.06" vaporized=""/>
    <tripinfo id="random_1714509479019504567" depart="76.00" departLane="-1652_1" departPos="0.20" departSpeed="0.00" departDelay="0.00" arrival="148.00" arrivalLane="-1583_2" arrivalPos="0.20" arrivalSpeed="6.42" duration="72.00" routeLength="799.31" waitingTime="0.00" waitingCount="0" stopTime="0.00" timeLoss="18.01" rerouteNo="0" devices="tripinfo_random_1714509479019504567" vType="vehicle.chevrolet.impala" speedFactor="1.18" vaporized=""/>
    <tripinfo id="random_1714509471579524487" depart="64.00" departLane="-1524_1" departPos="5.46" departSpeed="0.00" departDelay="0.00" arrival="149.00" arrivalLane="-1599_1" arrivalPos="63.52" arrivalSpeed="10.42" duration="85.00" routeLength="753.57" waitingTime="4.00" waitingCount="1" stopTime="0.00" timeLoss="14.71" rerouteNo="0" devices="tripinfo_random_1714509471579524487" vType="vehicle.chevrolet.impala" speedFactor="0.83" vaporized=""/>
    <tripinfo id="random_1714509485847323233" depart="91.00" departLane="-1533_1" departPos="4.61" departSpeed="0.00" departDelay="3.00" arrival="159.00" arrivalLane="-1530_2" arrivalPos="66.11" arrivalSpeed="11.08" duration="68.00" routeLength="368.85" waitingTime="1.00" waitingCount="1" stopTime="0.00" timeLoss="38.65" rerouteNo="0" devices="tripinfo_random_1714509485847323233" vType="vehicle.toyota.prius" speedFactor="1.03" vaporized=""/>
    <tripinfo id="random_1714509478399345060" depart="77.00" departLane="-1654_1" departPos="0.20" departSpeed="0.00" departDelay="1.00" arrival="167.00" arrivalLane="-1592_1" arrivalPos="34.32" arrivalSpeed="11.84" duration="90.00" routeLength="972.51" waitingTime="0.00" waitingCount="0" stopTime="0.00" timeLoss="14.27" rerouteNo="0" devices="tripinfo_random_1714509478399345060" vType="vehicle.volkswagen.t2_2021" speedFactor="0.93" vaporized=""/>
    <tripinfo id="random_1714509487704956051" depart="91.00" departLane="-1477_1" departPos="4.96" departSpeed="0.00" departDelay="0.00" arrival="169.00" arrivalLane="-1505_2" arrivalPos="0.20" arrivalSpeed="4.80" duration="78.00" routeLength="799.44" waitingTime="1.00" waitingCount="1" stopTime="0.00" timeLoss="19.26" rerouteNo="0" devices="tripinfo_random_1714509487704956051" vType="vehicle.audi.etron" speedFactor="1.04" vaporized=""/>
    <tripinfo id="random_1714509500734595696" depart="111.00" departLane="-1425_1" departPos="2.14" departSpeed="0.00" departDelay="0.00" arrival="169.00" arrivalLane="-1558_1" arrivalPos="8.19" arrivalSpeed="10.68" duration="58.00" routeLength="439.68" waitingTime="0.00" waitingCount="0" stopTime="0.00" timeLoss="13.51" rerouteNo="0" devices="tripinfo_random_1714509500734595696" vType="vehicle.kawasaki.ninja" speedFactor="0.82" vaporized=""/>
    <tripinfo id="random_1714509481502714692" depart="80.00" departLane="-1623_1" departPos="5.00" departSpeed="0.00" departDelay="0.00" arrival="171.00" arrivalLane="-1661_1" arrivalPos="588.55" arrivalSpeed="12.69" duration="91.00" routeLength="1021.38" waitingTime="2.00" waitingCount="1" stopTime="0.00" timeLoss="18.00" rerouteNo="0" devices="tripinfo_random_1714509481502714692" vType="vehicle.lincoln.mkz_2017" speedFactor="1.00" vaporized=""/>
    <tripinfo id="random_1714509482741508204" depart="82.00" departLane="-1563_1" departPos="8.04" departSpeed="0.00" departDelay="0.00" arrival="177.00" arrivalLane="-1554_1" arrivalPos="152.48" arrivalSpeed="14.45" duration="95.00" routeLength="889.42" waitingTime="0.00" waitingCount="0" stopTime="0.00" timeLoss="30.74" rerouteNo="0" devices="tripinfo_random_1714509482741508204" vType="vehicle.carlamotors.european_hgv" speedFactor="1.10" vaporized=""/>
    <tripinfo id="random_1714509472819393900" depart="66.00" departLane="-1662_1" departPos="4.28" departSpeed="0.00" departDelay="0.00" arrival="179.00" arrivalLane="-1608_1" arrivalPos="287.59" arrivalSpeed="11.44" duration="113.00" routeLength="1119.30" waitingTime="0.00" waitingCount="0" stopTime="0.00" timeLoss="15.33" rerouteNo="0" devices="tripinfo_random_1714509472819393900" vType="vehicle.audi.tt" speedFactor="0.86" vaporized=""/>
    <tripinfo id="random_1714509500112293994" depart="140.00" departLane="-1583_1" departPos="0.20" departSpeed="0.00" departDelay="29.00" arrival="182.00" arrivalLane="-1612_2" arrivalPos="219.69" arrivalSpeed="13.51" duration="42.00" routeLength="479.38" waitingTime="0.00" waitingCount="0" stopTime="0.00" timeLoss="6.09" rerouteNo="0" devices="tripinfo_random_1714509500112293994" vType="vehicle.lincoln.mkz_2017" speedFactor="1.03" vaporized=""/>
    <tripinfo id="random_1714509490806494263" depart="95.00" departLane="-1435_1" departPos="1.94" departSpeed="0.00" departDelay="0.00" arrival="192.00" arrivalLane="-1630_1" arrivalPos="19.31" arrivalSpeed="5.49" duration="97.00" routeLength="472.47" waitingTime="0.00" waitingCount="0" stopTime="0.00" timeLoss="11.70" rerouteNo="0" devices="tripinfo_random_1714509490806494263" vType="vehicle.gazelle.omafiets" speedFactor="1.01" vaporized=""/>
    <tripinfo id="random_1714509487086583245" depart="90.00" departLane="-1456_1" departPos="6.47" departSpeed="0.00" departDelay="0.00" arrival="193.00" arrivalLane="-1610_1" arrivalPos="123.98" arrivalSpeed="14.99" duration="103.00" routeLength="1142.97" waitingTime="0.00" waitingCount="0" stopTime="0.00" timeLoss="28.73" rerouteNo="0" devices="tripinfo_random_1714509487086583245" vType="vehicle.ford.ambulance" speedFactor="1.15" vaporized=""/>
    <tripinfo id="random_1714509484602869021" depart="88.00" departLane="-1511_1" departPos="0.20" departSpeed="0.00" departDelay="3.00" arrival="197.00" arrivalLane="-1556_1" arrivalPos="74.30" arrivalSpeed="11.26" duration="109.00" routeLength="1033.28" waitingTime="0.00" waitingCount="0" stopTime="0.00" timeLoss="17.58" rerouteNo="0" devices="tripinfo_random_1714509484602869021" vType="vehicle.tesla.cybertruck" speedFactor="0.88" vaporized=""/>
    <tripinfo id="random_1714509497630999687" depart="107.00" departLane="-1561_1" departPos="1.09" departSpeed="0.00" departDelay="0.00" arrival="203.00" arrivalLane="-1600_1" arrivalPos="31.26" arrivalSpeed="13.71" duration="96.00" routeLength="710.57" waitingTime="23.00" waitingCount="2" stopTime="0.00" timeLoss="40.47" rerouteNo="0" devices="tripinfo_random_1714509497630999687" vType="vehicle.mini.cooper_s" speedFactor="1.01" vaporized=""/>
    <tripinfo id="random_1714509485843270533" depart="90.00" departLane="-1666_1" departPos="4.89" departSpeed="0.00" departDelay="3.00" arrival="215.00" arrivalLane="-1631_1" arrivalPos="7.48" arrivalSpeed="13.54" duration="125.00" routeLength="1366.63" waitingTime="0.00" waitingCount="0" stopTime="0.00" timeLoss="29.46" rerouteNo="0" devices="tripinfo_random_1714509485843270533" vType="vehicle.tesla.model3" speedFactor="1.06" vaporized=""/>
    <tripinfo id="random_1714509498251154089" depart="107.00" departLane="-1640_0" departPos="5.34" departSpeed="0.00" departDelay="0.00" arrival="221.00" arrivalLane="-1598_1" arrivalPos="99.47" arrivalSpeed="12.41" duration="114.00" routeLength="882.98" waitingTime="4.00" waitingCount="1" stopTime="0.00" timeLoss="48.42" rerouteNo="0" devices="tripinfo_random_1714509498251154089" vType="vehicle.dodge.charger_police_2020" speedFactor="0.92" vaporized=""/>
    <tripinfo id="random_1714509501349449798" depart="112.00" departLane="-1408_1" departPos="0.20" departSpeed="0.00" departDelay="0.00" arrival="225.00" arrivalLane="-1571_1" arrivalPos="58.33" arrivalSpeed="12.23" duration="113.00" routeLength="757.23" waitingTime="49.00" waitingCount="2" stopTime="0.00" timeLoss="72.51" rerouteNo="0" devices="tripinfo_random_1714509501349449798" vType="vehicle.micro.microlino" speedFactor="1.12" vaporized=""/>
    <tripinfo id="random_1714509490189677161" depart="94.00" departLane="-1629_1" departPos="4.09" departSpeed="0.00" departDelay="0.00" arrival="232.00" arrivalLane="-1557_1" arrivalPos="176.05" arrivalSpeed="12.52" duration="138.00" routeLength="1154.04" waitingTime="2.00" waitingCount="1" stopTime="0.00" timeLoss="34.77" rerouteNo="0" devices="tripinfo_random_1714509490189677161" vType="vehicle.citroen.c3" speedFactor="0.92" vaporized=""/>
    <tripinfo id="random_1714509470337112187" depart="63.00" departLane="-1614_1" departPos="5.11" departSpeed="0.00" departDelay="0.00" arrival="238.00" arrivalLane="-1464_1" arrivalPos="42.98" arrivalSpeed="12.88" duration="175.00" routeLength="1794.79" waitingTime="0.00" waitingCount="0" stopTime="0.00" timeLoss="24.76" rerouteNo="0" devices="tripinfo_random_1714509470337112187" vType="vehicle.dodge.charger_2020" speedFactor="0.94" vaporized=""/>
    <tripinfo id="random_1714509495767849081" depart="103.00" departLane="-1654_1" departPos="0.20" departSpeed="0.00" departDelay="0.00" arrival="243.00" arrivalLane="-1617_2" arrivalPos="78.10" arrivalSpeed="5.83" duration="140.00" routeLength="895.49" waitingTime="55.00" waitingCount="2" stopTime="0.00" timeLoss="70.16" rerouteNo="0" devices="tripinfo_random_1714509495767849081" vType="vehicle.dodge.charger_police" speedFactor="1.00" vaporized=""/>
    <tripinfo id="random_1714509497628013287" depart="122.00" departLane="-1602_1" departPos="4.99" departSpeed="0.00" departDelay="16.00" arrival="252.00" arrivalLane="-1556_1" arrivalPos="74.30" arrivalSpeed="11.35" duration="130.00" routeLength="1085.78" waitingTime="19.00" waitingCount="1" stopTime="0.00" timeLoss="37.07" rerouteNo="0" devices="tripinfo_random_1714509497628013287" vType="vehicle.lincoln.mkz_2020" speedFactor="0.87" vaporized=""/>
    <tripinfo id="random_1714509479022724367" depart="77.00" departLane="-1649_1" departPos="0.20" departSpeed="0.00" departDelay="0.00" arrival="257.00" arrivalLane="-1510_2" arrivalPos="0.93" arrivalSpeed="10.62" duration="180.00" routeLength="980.41" waitingTime="85.00" waitingCount="1" stopTime="0.00" timeLoss="111.51" rerouteNo="0" devices="tripinfo_random_1714509479022724367" vType="vehicle.mercedes.sprinter" speedFactor="1.01" vaporized=""/>
    <tripinfo id="random_1714509472820228600" depart="66.00" departLane="-1524_1" departPos="1.94" departSpeed="0.00" departDelay="0.00" arrival="258.00" arrivalLane="-1530_1" arrivalPos="66.11" arrivalSpeed="5.43" duration="192.00" routeLength="488.38" waitingTime="91.00" waitingCount="1" stopTime="0.00" timeLoss="103.16" rerouteNo="0" devices="tripinfo_random_1714509472820228600" vType="vehicle.gazelle.omafiets" speedFactor="1.09" vaporized=""/>
    <tripinfo id="random_1714509474058906313" depart="68.00" departLane="-1647_1" departPos="0.20" departSpeed="0.00" departDelay="0.00" arrival="261.00" arrivalLane="-1624_1" arrivalPos="43.33" arrivalSpeed="12.69" duration="193.00" routeLength="1170.38" waitingTime="90.00" waitingCount="1" stopTime="0.00" timeLoss="110.61" rerouteNo="0" devices="tripinfo_random_1714509474058906313" vType="vehicle.toyota.prius" speedFactor="0.99" vaporized=""/>
    <tripinfo id="random_1714509488946181556" depart="97.00" departLane="-1634_1" departPos="2.14" departSpeed="0.00" departDelay="5.00" arrival="263.00" arrivalLane="-1650_1" arrivalPos="72.73" arrivalSpeed="13.87" duration="166.00" routeLength="1046.00" waitingTime="0.00" waitingCount="0" stopTime="0.00" timeLoss="89.91" rerouteNo="0" devices="tripinfo_random_1714509488946181556" vType="vehicle.kawasaki.ninja" speedFactor="1.02" vaporized=""/>
    <tripinfo id="random_1714509498249283189" depart="114.00" departLane="-1581_1" departPos="4.09" departSpeed="0.00" departDelay="7.00" arrival="264.00" arrivalLane="-1391_1" arrivalPos="183.09" arrivalSpeed="14.77" duration="150.00" routeLength="1055.61" waitingTime="0.00" waitingCount="0" stopTime="0.00" timeLoss="88.18" rerouteNo="0" devices="tripinfo_random_1714509498249283189" vType="vehicle.citroen.c3" speedFactor="1.10" vaporized=""/>
    <tripinfo id="random_1714509497008422985" depart="105.00" departLane="-1589_1" departPos="5.07" departSpeed="0.00" departDelay="0.00" arrival="265.00" arrivalLane="-1569_1" arrivalPos="153.10" arrivalSpeed="13.44" duration="160.00" routeLength="1106.97" waitingTime="56.00" waitingCount="1" stopTime="0.00" timeLoss="85.90" rerouteNo="0" devices="tripinfo_random_1714509497008422985" vType="vehicle.dodge.charger_police" speedFactor="1.00" vaporized=""/>
    <tripinfo id="random_1714509485842222733" depart="88.00" departLane="-1652_1" departPos="0.20" departSpeed="0.00" departDelay="1.00" arrival="267.00" arrivalLane="-1526_0" arrivalPos="109.04" arrivalSpeed="25.09" duration="179.00" routeLength="1257.50" waitingTime="59.00" waitingCount="1" stopTime="0.00" timeLoss="79.39" rerouteNo="0" devices="tripinfo_random_1714509485842222733" vType="vehicle.nissan.patrol" speedFactor="0.94" vaporized=""/>
    <tripinfo id="random_1714509474057977013" depart="68.00" departLane="-1575_1" departPos="3.81" departSpeed="0.00" departDelay="0.00" arrival="270.00" arrivalLane="-1444_1" arrivalPos="63.36" arrivalSpeed="15.35" duration="202.00" routeLength="1288.93" waitingTime="0.00" waitingCount="0" stopTime="0.00" timeLoss="115.52" rerouteNo="0" devices="tripinfo_random_1714509474057977013" vType="vehicle.audi.a2" speedFactor="1.12" vaporized=""/>
    <tripinfo id="random_1714509500110647294" depart="110.00" departLane="-1574_1" departPos="3.97" departSpeed="0.00" departDelay="0.00" arrival="273.00" arrivalLane="-1614_2" arrivalPos="110.20" arrivalSpeed="8.05" duration="163.00" routeLength="1417.54" waitingTime="31.00" waitingCount="1" stopTime="0.00" timeLoss="58.02" rerouteNo="0" devices="tripinfo_random_1714509500110647294" vType="vehicle.jeep.wrangler_rubicon" speedFactor="1.10" vaporized=""/>
    <tripinfo id="random_1714509490809628763" depart="96.00" departLane="-1662_1" departPos="5.07" departSpeed="0.00" departDelay="0.00" arrival="274.00" arrivalLane="-1569_1" arrivalPos="153.10" arrivalSpeed="13.23" duration="178.00" routeLength="1236.26" waitingTime="8.00" waitingCount="1" stopTime="0.00" timeLoss="84.37" rerouteNo="0" devices="tripinfo_random_1714509490809628763" vType="vehicle.dodge.charger_police" speedFactor="1.00" vaporized=""/>
    <tripinfo id="random_1714509480885665086" depart="80.00" departLane="-1632_1" departPos="5.10" departSpeed="0.00" departDelay="0.00" arrival="290.00" arrivalLane="-1513_2" arrivalPos="41.87" arrivalSpeed="14.47" duration="210.00" routeLength="1595.30" waitingTime="0.00" waitingCount="0" stopTime="0.00" timeLoss="97.38" rerouteNo="0" devices="tripinfo_random_1714509480885665086" vType="DEFAULT_VEHTYPE" speedFactor="1.04" vaporized=""/>
    <tripinfo id="random_1714509483985616116" depart="85.00" departLane="-1632_1" departPos="8.57" departSpeed="0.00" departDelay="0.00" arrival="293.00" arrivalLane="-1612_1" arrivalPos="219.69" arrivalSpeed="12.70" duration="208.00" routeLength="1537.62" waitingTime="0.00" waitingCount="0" stopTime="0.00" timeLoss="87.63" rerouteNo="0" devices="tripinfo_random_1714509483985616116" vType="vehicle.carlamotors.firetruck" speedFactor="0.94" vaporized=""/>
    <tripinfo id="random_1714509500732189396" depart="111.00" departLane="-1439_1" departPos="0.20" departSpeed="0.00" departDelay="0.00" arrival="295.00" arrivalLane="-1452_1" arrivalPos="432.19" arrivalSpeed="15.06" duration="184.00" routeLength="1576.20" waitingTime="48.00" waitingCount="2" stopTime="0.00" timeLoss="88.38" rerouteNo="0" devices="tripinfo_random_1714509500732189396" vType="vehicle.jeep.wrangler_rubicon" speedFactor="1.15" vaporized=""/>
    <tripinfo id="random_1714509475300919127" depart="71.00" departLane="-1517_1" departPos="5.34" departSpeed="0.00" departDelay="0.00" arrival="296.00" arrivalLane="-1485_1" arrivalPos="0.20" arrivalSpeed="14.01" duration="225.00" routeLength="1673.77" waitingTime="73.00" waitingCount="1" stopTime="0.00" timeLoss="108.34" rerouteNo="0" devices="tripinfo_random_1714509475300919127" vType="vehicle.dodge.charger_police_2020" speedFactor="1.02" vaporized=""/>
    <tripinfo id="random_1714509479021417767" depart="76.00" departLane="-1661_1" departPos="4.77" departSpeed="0.00" departDelay="0.00" arrival="302.00" arrivalLane="-1525_1" arrivalPos="45.95" arrivalSpeed="16.03" duration="226.00" routeLength="1958.53" waitingTime="4.00" waitingCount="1" stopTime="0.00" timeLoss="101.61" rerouteNo="0" devices="tripinfo_random_1714509479021417767" vType="vehicle.mercedes.coupe_2020" speedFactor="1.15" vaporized=""/>
    <tripinfo id="random_1714509479640671074" depart="80.00" departLane="-1524_1" departPos="3.91" departSpeed="0.00" departDelay="3.00" arrival="304.00" arrivalLane="-1577_1" arrivalPos="38.25" arrivalSpeed="13.84" duration="224.00" routeLength="907.26" waitingTime="89.00" waitingCount="3" stopTime="0.00" timeLoss="150.60" rerouteNo="0" devices="tripinfo_random_1714509479640671074" vType="vehicle.mini.cooper_s" speedFactor="1.02" vaporized=""/>
    <tripinfo id="random_1714509487085726145" depart="92.00" departLane="-1583_1" departPos="0.20" departSpeed="0.00" departDelay="3.00" arrival="308.00" arrivalLane="-1564_1" arrivalPos="56.13" arrivalSpeed="12.80" duration="216.00" routeLength="936.40" waitingTime="89.00" waitingCount="2" stopTime="0.00" timeLoss="139.82" rerouteNo="0" devices="tripinfo_random_1714509487085726145" vType="vehicle.dodge.charger_2020" speedFactor="0.97" vaporized=""/>
    <tripinfo id="random_1714509497009960485" depart="114.00" departLane="-1525_1" departPos="3.97" departSpeed="0.00" departDelay="9.00" arrival="308.00" arrivalLane="-1601_1" arrivalPos="6.57" arrivalSpeed="8.68" duration="194.00" routeLength="812.98" waitingTime="88.00" waitingCount="1" stopTime="0.00" timeLoss="126.94" rerouteNo="0" devices="tripinfo_random_1714509497009960485" vType="vehicle.jeep.wrangler_rubicon" speedFactor="0.96" vaporized=""/>
    <tripinfo id="random_1714509479642992774" depart="78.00" departLane="-1597_1" departPos="5.34" departSpeed="0.00" departDelay="0.00" arrival="313.00" arrivalLane="-1651_1" arrivalPos="174.89" arrivalSpeed="15.94" duration="235.00" routeLength="1786.92" waitingTime="77.00" waitingCount="1" stopTime="0.00" timeLoss="117.72" rerouteNo="0" devices="tripinfo_random_1714509479642992774" vType="vehicle.dodge.charger_police_2020" speedFactor="1.18" vaporized=""/>
    <tripinfo id="random_1714509482744900904" depart="99.00" departLane="-1504_1" departPos="4.89" departSpeed="0.00" departDelay="17.00" arrival="316.00" arrivalLane="-1598_1" arrivalPos="99.47" arrivalSpeed="11.29" duration="217.00" routeLength="940.25" waitingTime="87.00" waitingCount="1" stopTime="0.00" timeLoss="132.91" rerouteNo="0" devices="tripinfo_random_1714509482744900904" vType="vehicle.tesla.model3" speedFactor="0.90" vaporized=""/>
    <tripinfo id="random_1714509485223273427" depart="86.00" departLane="-1408_1" departPos="0.20" departSpeed="0.00" departDelay="0.00" arrival="324.00" arrivalLane="-1608_1" arrivalPos="287.59" arrivalSpeed="12.93" duration="238.00" routeLength="1878.17" waitingTime="71.00" waitingCount="2" stopTime="0.00" timeLoss="105.94" rerouteNo="0" devices="tripinfo_random_1714509485223273427" vType="DEFAULT_TAXITYPE" speedFactor="1.01" vaporized=""/>
    <tripinfo id="random_1714509477159303647" depart="74.00" departLane="-1546_1" departPos="4.29" departSpeed="0.00" departDelay="0.00" arrival="334.00" arrivalLane="-1630_1" arrivalPos="19.31" arrivalSpeed="12.37" duration="260.00" routeLength="1416.40" waitingTime="70.00" waitingCount="5" stopTime="0.00" timeLoss="142.95" rerouteNo="0" devices="tripinfo_random_1714509477159303647" vType="vehicle.seat.leon" speedFactor="0.95" vaporized=""/>
    <tripinfo id="random_1714509476541491340" depart="72.00" departLane="-1617_2" departPos="5.10" departSpeed="0.00" departDelay="0.00" arrival="372.00" arrivalLane="-1631_1" arrivalPos="7.48" arrivalSpeed="9.06" duration="300.00" routeLength="1692.43" waitingTime="12.00" waitingCount="2" stopTime="0.00" timeLoss="149.27" rerouteNo="0" devices="tripinfo_random_1714509476541491340" vType="DEFAULT_VEHTYPE" speedFactor="0.89" vaporized=""/>
    <tripinfo id="random_1714509472821163500" depart="67.00" departLane="-1544_1" departPos="1.76" departSpeed="0.00" departDelay="0.00" arrival="381.00" arrivalLane="-1634_1" arrivalPos="52.76" arrivalSpeed="5.36" duration="314.00" routeLength="1565.58" waitingTime="1.00" waitingCount="1" stopTime="0.00" timeLoss="31.67" rerouteNo="0" devices="tripinfo_random_1714509472821163500" vType="vehicle.diamondback.century" speedFactor="1.03" vaporized=""/>
    <tripinfo id="random_1714509499487251592" depart="109.00" departLane="-1434_1" departPos="0.20" departSpeed="0.00" departDelay="0.00" arrival="409.00" arrivalLane="-1613_1" arrivalPos="154.44" arrivalSpeed="5.34" duration="300.00" routeLength="2107.56" waitingTime="107.00" waitingCount="3" stopTime="0.00" timeLoss="158.29" rerouteNo="0" devices="tripinfo_random_1714509499487251592" vType="DEFAULT_VEHTYPE" speedFactor="1.07" vaporized=""/>
    <tripinfo id="random_1714509474061764713" depart="69.00" departLane="-1663_1" departPos="1.61" departSpeed="0.00" departDelay="0.00" arrival="427.00" arrivalLane="-1462_1" arrivalPos="7.48" arrivalSpeed="5.12" duration="358.00" routeLength="1852.49" waitingTime="0.00" waitingCount="0" stopTime="0.00" timeLoss="22.96" rerouteNo="0" devices="tripinfo_random_1714509474061764713" vType="vehicle.bh.crossbike" speedFactor="0.88" vaporized=""/>
    <tripinfo id="random_1714509486465710739" depart="88.00" departLane="-1662_1" departPos="3.73" departSpeed="0.00" departDelay="0.00" arrival="432.00" arrivalLane="-1532_1" arrivalPos="107.18" arrivalSpeed="14.87" duration="344.00" routeLength="1550.16" waitingTime="96.00" waitingCount="1" stopTime="0.00" timeLoss="234.53" rerouteNo="0" devices="tripinfo_random_1714509486465710739" vType="vehicle.nissan.micra" speedFactor="1.09" vaporized=""/>
    <tripinfo id="random_1714509479639695074" depart="77.00" departLane="-1524_1" departPos="4.70" departSpeed="0.00" departDelay="0.00" arrival="443.00" arrivalLane="-1573_1" arrivalPos="77.57" arrivalSpeed="9.91" duration="366.00" routeLength="710.19" waitingTime="246.00" waitingCount="3" stopTime="0.00" timeLoss="300.55" rerouteNo="0" devices="tripinfo_random_1714509479639695074" vType="vehicle.nissan.patrol" speedFactor="0.99" vaporized=""/>
    <tripinfo id="random_1714509482745861004" depart="82.00" departLane="-1467_1" departPos="8.04" departSpeed="0.00" departDelay="0.00" arrival="443.00" arrivalLane="-1427_1" arrivalPos="1012.56" arrivalSpeed="14.59" duration="361.00" routeLength="2754.12" waitingTime="96.00" waitingCount="1" stopTime="0.00" timeLoss="180.06" rerouteNo="0" devices="tripinfo_random_1714509482745861004" vType="vehicle.carlamotors.european_hgv" speedFactor="1.14" vaporized=""/>