<?xml version="1.0" encoding="UTF-8"?>

<!-- generated on 2024-05-01 22:07:56 by Eclipse SUMO GUI Version 1.12.0
<configuration xmlns:xsi="http://www.w3.org/2001/XMLSchema-instance" xsi:noNamespaceSchemaLocation="http://sumo.dlr.de/xsd/sumoConfiguration.xsd">

    <input>
        <net-file value="../Adapters/co_simulation/sumo_configuration/simple-map/UA.net.xml"/>
        <route-files value="../Adapters/co_simulation/sumo_configuration/simple-map/carlavtypes.rou.xml,../Adapters/co_simulation/sumo_configuration/simple-map/simple-map.rou.xml"/>
    </input>

    <output>
        <tripinfo-output value="tripinfo.xml"/>
    </output>

    <traci_server>
        <remote-port value="34011"/>
        <num-clients value="1"/>
    </traci_server>

    <gui_only>
        <gui-settings-file value="../Adapters/co_simulation/sumo_configuration/simple-map/simple-map.view.xml"/>
    </gui_only>

</configuration>
-->

<tripinfos xmlns:xsi="http://www.w3.org/2001/XMLSchema-instance" xsi:noNamespaceSchemaLocation="http://sumo.dlr.de/xsd/tripinfo_file.xsd">
    <tripinfo id="0" depart="3.00" departLane="-1466_1" departPos="5.34" departSpeed="0.00" departDelay="0.00" arrival="12.00" arrivalLane="-1465_1" arrivalPos="11.38" arrivalSpeed="13.75" duration="9.00" routeLength="73.18" waitingTime="0.00" waitingCount="0" stopTime="0.00" timeLoss="3.49" rerouteNo="0" devices="tripinfo_0" vType="vehicle.dodge.charger_police_2020" speedFactor="1.06" vaporized=""/>
    <tripinfo id="random_1714597783956674743" depart="171.00" departLane="-1489_0" departPos="0.20" departSpeed="0.00" departDelay="0.00" arrival="195.00" arrivalLane="-1663_1" arrivalPos="134.19" arrivalSpeed="11.13" duration="24.00" routeLength="240.67" waitingTime="0.00" waitingCount="0" stopTime="0.00" timeLoss="3.72" rerouteNo="0" devices="tripinfo_random_1714597783956674743" vType="vehicle.volkswagen.t2_2021" speedFactor="0.89" vaporized=""/>
    <tripinfo id="random_1714597782713763718" depart="170.00" departLane="-1563_1" departPos="8.04" departSpeed="0.00" departDelay="0.00" arrival="199.00" arrivalLane="-1505_1" arrivalPos="0.20" arrivalSpeed="4.72" duration="29.00" routeLength="121.64" waitingTime="1.00" waitingCount="1" stopTime="0.00" timeLoss="15.95" rerouteNo="0" devices="tripinfo_random_1714597782713763718" vType="vehicle.carlamotors.european_hgv" speedFactor="0.94" vaporized=""/>
    <tripinfo id="random_1714597787637522217" depart="184.00" departLane="-1519_1" departPos="4.89" departSpeed="0.00" departDelay="0.00" arrival="201.00" arrivalLane="-1642_1" arrivalPos="43.80" arrivalSpeed="11.44" duration="17.00" routeLength="152.59" waitingTime="0.00" waitingCount="0" stopTime="0.00" timeLoss="4.09" rerouteNo="0" devices="tripinfo_random_1714597787637522217" vType="vehicle.tesla.model3" speedFactor="0.91" vaporized=""/>
    <tripinfo id="random_1714597788553649336" depart="191.00" departLane="-1606_1" departPos="5.67" departSpeed="0.00" departDelay="2.00" arrival="205.00" arrivalLane="-1540_1" arrivalPos="66.16" arrivalSpeed="15.31" duration="14.00" routeLength="120.62" waitingTime="0.00" waitingCount="0" stopTime="0.00" timeLoss="5.37" rerouteNo="0" devices="tripinfo_random_1714597788553649336" vType="vehicle.nissan.patrol_2021" speedFactor="1.15" vaporized=""/>
    <tripinfo id="random_1714597790235382029" depart="201.00" departLane="-1500_0" departPos="0.20" departSpeed="0.00" departDelay="0.00" arrival="208.00" arrivalLane="-1495_1" arrivalPos="2.34" arrivalSpeed="8.39" duration="7.00" routeLength="37.82" waitingTime="0.00" waitingCount="0" stopTime="0.00" timeLoss="3.07" rerouteNo="0" devices="tripinfo_random_1714597790235382029" vType="vehicle.audi.etron" speedFactor="1.00" vaporized=""/>
    <tripinfo id="random_1714597782712475418" depart="169.00" departLane="-1567_1" departPos="4.28" departSpeed="0.00" departDelay="0.00" arrival="209.00" arrivalLane="-1545_1" arrivalPos="71.78" arrivalSpeed="11.86" duration="40.00" routeLength="302.10" waitingTime="2.00" waitingCount="1" stopTime="0.00" timeLoss="12.12" rerouteNo="0" devices="tripinfo_random_1714597782712475418" vType="vehicle.audi.tt" speedFactor="0.88" vaporized=""/>
    <tripinfo id="random_1714597786379378792" depart="178.00" departLane="-1624_2" departPos="4.28" departSpeed="0.00" departDelay="0.00" arrival="209.00" arrivalLane="-1510_2" arrivalPos="0.93" arrivalSpeed="10.68" duration="31.00" routeLength="333.09" waitingTime="0.00" waitingCount="0" stopTime="0.00" timeLoss="7.13" rerouteNo="0" devices="tripinfo_random_1714597786379378792" vType="vehicle.audi.tt" speedFactor="1.09" vaporized=""/>
    <tripinfo id="random_1714597786907217303" depart="180.00" departLane="-1455_1" departPos="3.16" departSpeed="0.00" departDelay="0.00" arrival="210.00" arrivalLane="-1537_1" arrivalPos="45.63" arrivalSpeed="11.33" duration="30.00" routeLength="257.04" waitingTime="0.00" waitingCount="0" stopTime="0.00" timeLoss="5.42" rerouteNo="0" devices="tripinfo_random_1714597786907217303" vType="vehicle.carlamotors.european_hgv" speedFactor="0.85" vaporized=""/>
    <tripinfo id="random_1714597789052831646" depart="192.00" departLane="-1631_1" departPos="6.37" departSpeed="0.00" departDelay="0.00" arrival="211.00" arrivalLane="-1575_1" arrivalPos="61.30" arrivalSpeed="13.42" duration="19.00" routeLength="150.08" waitingTime="0.00" waitingCount="0" stopTime="0.00" timeLoss="8.16" rerouteNo="0" devices="tripinfo_random_1714597789052831646" vType="vehicle.tesla.cybertruck" speedFactor="1.06" vaporized=""/>
    <tripinfo id="random_1714597786376049692" depart="177.00" departLane="-1625_1" departPos="3.81" departSpeed="0.00" departDelay="0.00" arrival="217.00" arrivalLane="-1547_1" arrivalPos="68.69" arrivalSpeed="6.97" duration="40.00" routeLength="282.10" waitingTime="0.00" waitingCount="0" stopTime="0.00" timeLoss="18.24" rerouteNo="0" devices="tripinfo_random_1714597786376049692" vType="vehicle.audi.a2" speedFactor="1.04" vaporized=""/>
    <tripinfo id="random_1714597779607309958" depart="164.00" departLane="-1537_1" departPos="4.89" departSpeed="0.00" departDelay="0.00" arrival="219.00" arrivalLane="-1629_1" arrivalPos="26.02" arrivalSpeed="10.92" duration="55.00" routeLength="488.44" waitingTime="0.00" waitingCount="0" stopTime="0.00" timeLoss="10.36" rerouteNo="0" devices="tripinfo_random_1714597779607309958" vType="vehicle.tesla.model3" speedFactor="0.83" vaporized=""/>
    <tripinfo id="random_1714597789840566304" depart="198.00" departLane="-1510_1" departPos="0.93" departSpeed="0.00" departDelay="0.00" arrival="220.00" arrivalLane="-1584_1" arrivalPos="5.82" arrivalSpeed="9.68" duration="22.00" routeLength="132.21" waitingTime="0.00" waitingCount="0" stopTime="0.00" timeLoss="7.63" rerouteNo="0" devices="tripinfo_random_1714597789840566304" vType="DEFAULT_TAXITYPE" speedFactor="0.93" vaporized=""/>
    <tripinfo id="random_1714597780228926269" depart="166.00" departLane="-1663_2" departPos="5.10" departSpeed="0.00" departDelay="0.00" arrival="226.00" arrivalLane="-1547_1" arrivalPos="68.69" arrivalSpeed="12.08" duration="60.00" routeLength="586.70" waitingTime="0.00" waitingCount="0" stopTime="0.00" timeLoss="11.67" rerouteNo="0" devices="tripinfo_random_1714597780228926269" vType="DEFAULT_VEHTYPE" speedFactor="0.94" vaporized=""/>
    <tripinfo id="random_1714597780855235981" depart="166.00" departLane="-1544_1" departPos="4.09" departSpeed="0.00" departDelay="0.00" arrival="226.00" arrivalLane="-1452_1" arrivalPos="432.19" arrivalSpeed="14.64" duration="60.00" routeLength="743.66" waitingTime="0.00" waitingCount="0" stopTime="0.00" timeLoss="9.64" rerouteNo="0" devices="tripinfo_random_1714597780855235981" vType="vehicle.citroen.c3" speedFactor="1.09" vaporized=""/>
    <tripinfo id="random_1714597788188950229" depart="189.00" departLane="-1550_1" departPos="4.58" departSpeed="0.00" departDelay="1.00" arrival="226.00" arrivalLane="-1409_1" arrivalPos="59.28" arrivalSpeed="13.58" duration="37.00" routeLength="287.05" waitingTime="6.00" waitingCount="1" stopTime="0.00" timeLoss="14.71" rerouteNo="0" devices="tripinfo_random_1714597788188950229" vType="vehicle.volkswagen.t2" speedFactor="1.01" vaporized=""/>
    <tripinfo id="random_1714597792748862662" depart="220.00" departLane="-1504_2" departPos="5.34" departSpeed="0.00" departDelay="0.00" arrival="226.00" arrivalLane="-1504_2" arrivalPos="37.65" arrivalSpeed="11.64" duration="6.00" routeLength="32.31" waitingTime="0.00" waitingCount="0" stopTime="0.00" timeLoss="3.41" rerouteNo="0" devices="tripinfo_random_1714597792748862662" vType="vehicle.dodge.charger_police_2020" speedFactor="1.14" vaporized=""/>
    <tripinfo id="random_1714597783961111343" depart="172.00" departLane="-1548_1" departPos="4.89" departSpeed="0.00" departDelay="0.00" arrival="227.00" arrivalLane="-1525_1" arrivalPos="45.95" arrivalSpeed="11.00" duration="55.00" routeLength="371.75" waitingTime="3.00" waitingCount="1" stopTime="0.00" timeLoss="17.93" rerouteNo="0" devices="tripinfo_random_1714597783961111343" vType="vehicle.tesla.model3" speedFactor="0.83" vaporized=""/>
    <tripinfo id="random_1714597787289406010" depart="182.00" departLane="-1409_1" departPos="8.04" departSpeed="0.00" departDelay="0.00" arrival="227.00" arrivalLane="-1425_1" arrivalPos="70.17" arrivalSpeed="14.76" duration="45.00" routeLength="467.07" waitingTime="0.00" waitingCount="0" stopTime="0.00" timeLoss="11.31" rerouteNo="0" devices="tripinfo_random_1714597787289406010" vType="vehicle.carlamotors.european_hgv" speedFactor="1.08" vaporized=""/>
    <tripinfo id="random_1714597793150215491" depart="223.00" departLane="-1493_1" departPos="0.20" departSpeed="0.00" departDelay="0.00" arrival="235.00" arrivalLane="-1498_0" arrivalPos="0.20" arrivalSpeed="6.95" duration="12.00" routeLength="14.82" waitingTime="8.00" waitingCount="1" stopTime="0.00" timeLoss="9.93" rerouteNo="0" devices="tripinfo_random_1714597793150215491" vType="DEFAULT_CONTAINERTYPE" speedFactor="1.00" vaporized=""/>
    <tripinfo id="random_1714597785200008068" depart="173.00" departLane="-1444_1" departPos="4.82" departSpeed="0.00" departDelay="0.00" arrival="237.00" arrivalLane="-1618_1" arrivalPos="128.84" arrivalSpeed="15.25" duration="64.00" routeLength="683.66" waitingTime="0.00" waitingCount="0" stopTime="0.00" timeLoss="16.97" rerouteNo="0" devices="tripinfo_random_1714597785200008068" vType="vehicle.ford.mustang" speedFactor="1.13" vaporized=""/>
    <tripinfo id="random_1714597793541826014" depart="226.00" departLane="-1625_1" departPos="6.02" departSpeed="0.00" departDelay="0.00" arrival="239.00" arrivalLane="-1500_0" arrivalPos="0.20" arrivalSpeed="4.32" duration="13.00" routeLength="49.89" waitingTime="1.00" waitingCount="1" stopTime="0.00" timeLoss="8.63" rerouteNo="0" devices="tripinfo_random_1714597793541826014" vType="vehicle.mercedes.sprinter" speedFactor="0.90" vaporized=""/>
    <tripinfo id="random_1714597790765929932" depart="205.00" departLane="-1591_1" departPos="2.31" departSpeed="0.00" departDelay="0.00" arrival="243.00" arrivalLane="-1462_1" arrivalPos="7.48" arrivalSpeed="9.10" duration="38.00" routeLength="357.67" waitingTime="0.00" waitingCount="0" stopTime="0.00" timeLoss="10.58" rerouteNo="0" devices="tripinfo_random_1714597790765929932" vType="vehicle.micro.microlino" speedFactor="1.03" vaporized=""/>
    <tripinfo id="random_1714597794203536191" depart="231.00" departLane="-1497_1" departPos="1.67" departSpeed="0.00" departDelay="0.00" arrival="244.00" arrivalLane="-1494_1" arrivalPos="0.20" arrivalSpeed="5.08" duration="13.00" routeLength="51.34" waitingTime="0.00" waitingCount="0" stopTime="0.00" timeLoss="6.74" rerouteNo="0" devices="tripinfo_random_1714597794203536191" vType="vehicle.carlamotors.carlacola" speedFactor="0.98" vaporized=""/>
    <tripinfo id="random_1714597792622495790" depart="219.00" departLane="-1616_1" departPos="5.11" departSpeed="0.00" departDelay="0.00" arrival="245.00" arrivalLane="-1617_1" arrivalPos="78.10" arrivalSpeed="7.85" duration="26.00" routeLength="182.55" waitingTime="0.00" waitingCount="0" stopTime="0.00" timeLoss="5.88" rerouteNo="0" devices="tripinfo_random_1714597792622495790" vType="vehicle.dodge.charger_2020" speedFactor="0.90" vaporized=""/>
    <tripinfo id="random_1714597785994695984" depart="175.00" departLane="-1636_1" departPos="6.02" departSpeed="0.00" departDelay="0.00" arrival="247.00" arrivalLane="-1601_1" arrivalPos="6.57" arrivalSpeed="8.03" duration="72.00" routeLength="562.37" waitingTime="14.00" waitingCount="1" stopTime="0.00" timeLoss="31.38" rerouteNo="0" devices="tripinfo_random_1714597785994695984" vType="vehicle.mercedes.sprinter" speedFactor="0.99" vaporized=""/>
    <tripinfo id="random_1714597787279205510" depart="182.00" departLane="-1532_1" departPos="8.57" departSpeed="0.00" departDelay="0.00" arrival="248.00" arrivalLane="-1531_1" arrivalPos="96.99" arrivalSpeed="13.85" duration="66.00" routeLength="688.38" waitingTime="2.00" waitingCount="1" stopTime="0.00" timeLoss="21.64" rerouteNo="0" devices="tripinfo_random_1714597787279205510" vType="vehicle.carlamotors.firetruck" speedFactor="1.02" vaporized=""/>
    <tripinfo id="random_1714597789842166305" depart="199.00" departLane="-1513_1" departPos="4.99" departSpeed="0.00" departDelay="0.00" arrival="250.00" arrivalLane="-1529_2" arrivalPos="78.96" arrivalSpeed="14.07" duration="51.00" routeLength="373.44" waitingTime="10.00" waitingCount="1" stopTime="0.00" timeLoss="20.34" rerouteNo="0" devices="tripinfo_random_1714597789842166305" vType="vehicle.lincoln.mkz_2020" speedFactor="1.10" vaporized=""/>
    <tripinfo id="random_1714597795662140522" depart="244.00" departLane="-1494_1" departPos="0.20" departSpeed="0.00" departDelay="1.00" arrival="252.00" arrivalLane="-1487_0" arrivalPos="0.20" arrivalSpeed="6.32" duration="8.00" routeLength="26.97" waitingTime="0.00" waitingCount="0" stopTime="0.00" timeLoss="4.68" rerouteNo="0" devices="tripinfo_random_1714597795662140522" vType="vehicle.ford.ambulance" speedFactor="1.01" vaporized=""/>
    <tripinfo id="random_1714597788015244025" depart="194.00" departLane="-1663_2" departPos="3.97" departSpeed="0.00" departDelay="8.00" arrival="261.00" arrivalLane="-1425_1" arrivalPos="70.17" arrivalSpeed="12.17" duration="67.00" routeLength="670.76" waitingTime="0.00" waitingCount="0" stopTime="0.00" timeLoss="12.47" rerouteNo="0" devices="tripinfo_random_1714597788015244025" vType="vehicle.jeep.wrangler_rubicon" speedFactor="0.96" vaporized=""/>
    <tripinfo id="random_1714597788911103143" depart="191.00" departLane="-1455_1" departPos="3.16" departSpeed="0.00" departDelay="0.00" arrival="265.00" arrivalLane="-1577_1" arrivalPos="38.25" arrivalSpeed="12.05" duration="74.00" routeLength="585.94" waitingTime="5.00" waitingCount="2" stopTime="0.00" timeLoss="22.88" rerouteNo="0" devices="tripinfo_random_1714597788911103143" vType="vehicle.bmw.grandtourer" speedFactor="0.89" vaporized=""/>
    <tripinfo id="random_1714597786183151088" depart="176.00" departLane="-1513_1" departPos="4.54" departSpeed="0.00" departDelay="0.00" arrival="270.00" arrivalLane="-1643_1" arrivalPos="73.81" arrivalSpeed="4.52" duration="94.00" routeLength="492.62" waitingTime="31.00" waitingCount="1" stopTime="0.00" timeLoss="58.39" rerouteNo="0" devices="tripinfo_random_1714597786183151088" vType="vehicle.volkswagen.t2_2021" speedFactor="1.10" vaporized=""/>
    <tripinfo id="random_1714597789059605646" depart="193.00" departLane="-1594_1" departPos="0.20" departSpeed="0.00" departDelay="0.00" arrival="273.00" arrivalLane="-1536_1" arrivalPos="7.71" arrivalSpeed="21.01" duration="80.00" routeLength="922.87" waitingTime="2.00" waitingCount="1" stopTime="0.00" timeLoss="22.20" rerouteNo="0" devices="tripinfo_random_1714597789059605646" vType="DEFAULT_CONTAINERTYPE" speedFactor="1.00" vaporized=""/>
    <tripinfo id="random_1714597787090294206" depart="181.00" departLane="-1593_2" departPos="5.10" departSpeed="0.00" departDelay="0.00" arrival="277.00" arrivalLane="-1614_2" arrivalPos="110.20" arrivalSpeed="7.63" duration="96.00" routeLength="963.05" waitingTime="0.00" waitingCount="0" stopTime="0.00" timeLoss="13.93" rerouteNo="0" devices="tripinfo_random_1714597787090294206" vType="DEFAULT_VEHTYPE" speedFactor="1.02" vaporized=""/>
    <tripinfo id="random_1714597796192100224" depart="246.00" departLane="-1592_1" departPos="4.09" departSpeed="0.00" departDelay="0.00" arrival="281.00" arrivalLane="-1462_1" arrivalPos="7.48" arrivalSpeed="6.13" duration="35.00" routeLength="206.09" waitingTime="0.00" waitingCount="0" stopTime="0.00" timeLoss="10.20" rerouteNo="0" devices="tripinfo_random_1714597796192100224" vType="vehicle.citroen.c3" speedFactor="0.71" vaporized=""/>
    <tripinfo id="random_1714597792222544462" depart="216.00" departLane="-1650_1" departPos="1.92" departSpeed="0.00" departDelay="0.00" arrival="282.00" arrivalLane="-1600_1" arrivalPos="31.26" arrivalSpeed="12.17" duration="66.00" routeLength="589.79" waitingTime="0.00" waitingCount="0" stopTime="0.00" timeLoss="18.51" rerouteNo="0" devices="tripinfo_random_1714597792222544462" vType="vehicle.vespa.zx125" speedFactor="0.91" vaporized=""/>
    <tripinfo id="random_1714597800695791007" depart="280.00" departLane="-1474_1" departPos="4.89" departSpeed="0.00" departDelay="0.00" arrival="291.00" arrivalLane="-1474_1" arrivalPos="118.69" arrivalSpeed="20.71" duration="11.00" routeLength="113.80" waitingTime="0.00" waitingCount="0" stopTime="0.00" timeLoss="6.12" rerouteNo="0" devices="tripinfo_random_1714597800695791007" vType="vehicle.tesla.model3" speedFactor="1.13" vaporized=""/>
    <tripinfo id="random_1714597788365784932" depart="189.00" departLane="-1600_1" departPos="8.04" departSpeed="0.00" departDelay="1.00" arrival="294.00" arrivalLane="-1555_1" arrivalPos="86.48" arrivalSpeed="5.62" duration="105.00" routeLength="889.38" waitingTime="13.00" waitingCount="1" stopTime="0.00" timeLoss="41.06" rerouteNo="0" devices="tripinfo_random_1714597788365784932" vType="vehicle.carlamotors.european_hgv" speedFactor="1.09" vaporized=""/>
    <tripinfo id="random_1714597794077936819" depart="237.00" departLane="-1593_1" departPos="4.65" departSpeed="0.00" departDelay="7.00" arrival="294.00" arrivalLane="-1574_1" arrivalPos="251.06" arrivalSpeed="13.07" duration="57.00" routeLength="690.68" waitingTime="0.00" waitingCount="0" stopTime="0.00" timeLoss="6.69" rerouteNo="0" devices="tripinfo_random_1714597794077936819" vType="vehicle.mini.cooper_s_2021" speedFactor="1.00" vaporized=""/>
    <tripinfo id="random_1714597788374448232" depart="188.00" departLane="-1502_0" departPos="0.20" departSpeed="0.00" departDelay="0.00" arrival="296.00" arrivalLane="-1576_1" arrivalPos="60.09" arrivalSpeed="13.77" duration="108.00" routeLength="1281.43" waitingTime="0.00" waitingCount="0" stopTime="0.00" timeLoss="13.95" rerouteNo="0" devices="tripinfo_random_1714597788374448232" vType="vehicle.ford.crown" speedFactor="1.02" vaporized=""/>
    <tripinfo id="random_1714597794997918944" depart="239.00" departLane="-1594_1" departPos="0.20" departSpeed="0.00" departDelay="2.00" arrival="297.00" arrivalLane="-1641_1" arrivalPos="2.23" arrivalSpeed="11.61" duration="58.00" routeLength="623.78" waitingTime="2.00" waitingCount="1" stopTime="0.00" timeLoss="9.83" rerouteNo="0" devices="tripinfo_random_1714597794997918944" vType="vehicle.nissan.patrol" speedFactor="0.97" vaporized=""/>
    <tripinfo id="random_1714597800959492006" depart="285.00" departLane="-1492_1" departPos="3.51" departSpeed="0.00" departDelay="3.00" arrival="297.00" arrivalLane="-1502_0" arrivalPos="0.20" arrivalSpeed="5.96" duration="12.00" routeLength="22.71" waitingTime="0.00" waitingCount="0" stopTime="0.00" timeLoss="8.46" rerouteNo="0" devices="tripinfo_random_1714597800959492006" vType="vehicle.carlamotors.carlacola" speedFactor="0.99" vaporized=""/>
    <tripinfo id="random_1714597799104783315" depart="283.00" departLane="-1495_1" departPos="2.34" departSpeed="0.00" departDelay="15.00" arrival="300.00" arrivalLane="-1490_1" arrivalPos="2.06" arrivalSpeed="4.00" duration="17.00" routeLength="45.13" waitingTime="3.00" waitingCount="3" stopTime="0.00" timeLoss="11.69" rerouteNo="0" devices="tripinfo_random_1714597799104783315" vType="vehicle.nissan.patrol" speedFactor="1.07" vaporized=""/>
    <tripinfo id="random_1714597792220898161" depart="216.00" departLane="-1600_1" departPos="5.10" departSpeed="0.00" departDelay="0.00" arrival="301.00" arrivalLane="-1555_1" arrivalPos="86.48" arrivalSpeed="9.20" duration="85.00" routeLength="892.32" waitingTime="0.00" waitingCount="0" stopTime="0.00" timeLoss="18.29" rerouteNo="0" devices="tripinfo_random_1714597792220898161" vType="DEFAULT_TAXITYPE" speedFactor="1.03" vaporized=""/>
    <tripinfo id="random_1714597785205336168" depart="174.00" departLane="-1594_1" departPos="0.20" departSpeed="0.00" departDelay="1.00" arrival="302.00" arrivalLane="-1622_1" arrivalPos="88.55" arrivalSpeed="8.50" duration="128.00" routeLength="745.12" waitingTime="45.00" waitingCount="2" stopTime="0.00" timeLoss="69.34" rerouteNo="0" devices="tripinfo_random_1714597785205336168" vType="vehicle.carlamotors.european_hgv" speedFactor="0.93" vaporized=""/>
    <tripinfo id="random_1714597787635512317" depart="184.00" departLane="-1554_1" departPos="5.10" departSpeed="0.00" departDelay="0.00" arrival="302.00" arrivalLane="-1637_1" arrivalPos="51.66" arrivalSpeed="6.08" duration="118.00" routeLength="805.26" waitingTime="0.00" waitingCount="0" stopTime="0.00" timeLoss="54.50" rerouteNo="0" devices="tripinfo_random_1714597787635512317" vType="DEFAULT_TAXITYPE" speedFactor="0.94" vaporized=""/>
    <tripinfo id="random_1714597787091316906" depart="181.00" departLane="-1512_1" departPos="0.20" departSpeed="0.00" departDelay="0.00" arrival="303.00" arrivalLane="-1596_1" arrivalPos="134.55" arrivalSpeed="12.89" duration="122.00" routeLength="1041.41" waitingTime="23.00" waitingCount="2" stopTime="0.00" timeLoss="54.36" rerouteNo="0" devices="tripinfo_random_1714597787091316906" vType="vehicle.harley-davidson.low_rider" speedFactor="1.10" vaporized=""/>
    <tripinfo id="random_1714597796591151751" depart="249.00" departLane="-1612_1" departPos="4.70" departSpeed="0.00" departDelay="0.00" arrival="303.00" arrivalLane="-1524_1" arrivalPos="5.55" arrivalSpeed="12.96" duration="54.00" routeLength="325.81" waitingTime="17.00" waitingCount="1" stopTime="0.00" timeLoss="28.77" rerouteNo="0" devices="tripinfo_random_1714597796591151751" vType="vehicle.nissan.patrol" speedFactor="0.96" vaporized=""/>
    <tripinfo id="random_1714597798721444972" depart="266.00" departLane="-1520_1" departPos="4.61" departSpeed="0.00" departDelay="0.00" arrival="307.00" arrivalLane="-1573_1" arrivalPos="77.57" arrivalSpeed="9.93" duration="41.00" routeLength="375.92" waitingTime="0.00" waitingCount="0" stopTime="0.00" timeLoss="10.39" rerouteNo="0" devices="tripinfo_random_1714597798721444972" vType="vehicle.toyota.prius" speedFactor="0.99" vaporized=""/>
    <tripinfo id="random_1714597780850134481" depart="168.00" departLane="-1597_1" departPos="4.89" departSpeed="0.00" departDelay="2.00" arrival="312.00" arrivalLane="-1643_1" arrivalPos="73.81" arrivalSpeed="11.79" duration="144.00" routeLength="726.39" waitingTime="69.00" waitingCount="1" stopTime="0.00" timeLoss="83.70" rerouteNo="0" devices="tripinfo_random_1714597780850134481" vType="vehicle.tesla.model3" speedFactor="0.86" vaporized=""/>
    <tripinfo id="random_1714597796851081000" depart="251.00" departLane="-1524_1" departPos="2.31" departSpeed="0.00" departDelay="0.00" arrival="312.00" arrivalLane="-1505_1" arrivalPos="0.20" arrivalSpeed="5.18" duration="61.00" routeLength="75.46" waitingTime="38.00" waitingCount="2" stopTime="0.00" timeLoss="52.18" rerouteNo="0" devices="tripinfo_random_1714597796851081000" vType="vehicle.micro.microlino" speedFactor="0.87" vaporized=""/>
    <tripinfo id="random_1714597787639499817" depart="184.00" departLane="-1581_1" departPos="2.31" departSpeed="0.00" departDelay="0.00" arrival="314.00" arrivalLane="-1526_0" arrivalPos="109.04" arrivalSpeed="27.39" duration="130.00" routeLength="524.41" waitingTime="81.00" waitingCount="1" stopTime="0.00" timeLoss="94.67" rerouteNo="0" devices="tripinfo_random_1714597787639499817" vType="vehicle.micro.microlino" speedFactor="1.04" vaporized=""/>
    <tripinfo id="random_1714597789576253254" depart="196.00" departLane="-1563_1" departPos="2.31" departSpeed="0.00" departDelay="0.00" arrival="319.00" arrivalLane="-1584_1" arrivalPos="5.82" arrivalSpeed="10.33" duration="123.00" routeLength="159.94" waitingTime="70.00" waitingCount="5" stopTime="0.00" timeLoss="107.34" rerouteNo="0" devices="tripinfo_random_1714597789576253254" vType="vehicle.micro.microlino" speedFactor="1.01" vaporized=""/>
    <tripinfo id="random_1714597789718293935" depart="197.00" departLane="-1512_1" departPos="0.20" departSpeed="0.00" departDelay="0.00" arrival="321.00" arrivalLane="-1556_1" arrivalPos="74.30" arrivalSpeed="12.07" duration="124.00" routeLength="976.56" waitingTime="0.00" waitingCount="0" stopTime="0.00" timeLoss="44.27" rerouteNo="0" devices="tripinfo_random_1714597789718293935" vType="vehicle.dodge.charger_police_2020" speedFactor="0.96" vaporized=""/>
    <tripinfo id="random_1714597795926772773" depart="245.00" departLane="-1645_1" departPos="3.73" departSpeed="0.00" departDelay="0.00" arrival="324.00" arrivalLane="-1472_1" arrivalPos="59.90" arrivalSpeed="15.08" duration="79.00" routeLength="797.02" waitingTime="12.00" waitingCount="1" stopTime="0.00" timeLoss="30.79" rerouteNo="0" devices="tripinfo_random_1714597795926772773" vType="vehicle.nissan.micra" speedFactor="1.11" vaporized=""/>
    <tripinfo id="random_1714597796722590326" depart="250.00" departLane="-1651_1" departPos="4.09" departSpeed="0.00" departDelay="0.00" arrival="328.00" arrivalLane="-1609_2" arrivalPos="60.92" arrivalSpeed="11.64" duration="78.00" routeLength="802.04" waitingTime="0.00" waitingCount="0" stopTime="0.00" timeLoss="12.44" rerouteNo="0" devices="tripinfo_random_1714597796722590326" vType="vehicle.citroen.c3" speedFactor="0.92" vaporized=""/>
    <tripinfo id="random_1714597799499931062" depart="271.00" departLane="-1524_1" departPos="2.29" departSpeed="0.00" departDelay="0.00" arrival="328.00" arrivalLane="-1513_2" arrivalPos="41.87" arrivalSpeed="11.24" duration="57.00" routeLength="158.43" waitingTime="20.00" waitingCount="3" stopTime="0.00" timeLoss="38.75" rerouteNo="0" devices="tripinfo_random_1714597799499931062" vType="vehicle.yamaha.yzf" speedFactor="0.87" vaporized=""/>
    <tripinfo id="random_1714597789979078483" depart="199.00" departLane="-1472_1" departPos="5.47" departSpeed="0.00" departDelay="0.00" arrival="329.00" arrivalLane="-1636_1" arrivalPos="104.54" arrivalSpeed="11.52" duration="130.00" routeLength="829.39" waitingTime="35.00" waitingCount="3" stopTime="0.00" timeLoss="74.40" rerouteNo="0" devices="tripinfo_random_1714597789979078483" vType="vehicle.ford.crown" speedFactor="1.10" vaporized=""/>
    <tripinfo id="random_1714597794602600118" depart="234.00" departLane="-1553_1" departPos="4.82" departSpeed="0.00" departDelay="0.00" arrival="330.00" arrivalLane="-1419_1" arrivalPos="86.08" arrivalSpeed="14.26" duration="96.00" routeLength="757.19" waitingTime="21.00" waitingCount="1" stopTime="0.00" timeLoss="42.09" rerouteNo="0" devices="tripinfo_random_1714597794602600118" vType="vehicle.ford.mustang" speedFactor="1.06" vaporized=""/>
    <tripinfo id="random_1714597800297508859" depart="277.00" departLane="-1651_1" departPos="4.71" departSpeed="0.00" departDelay="0.00" arrival="330.00" arrivalLane="-1523_1" arrivalPos="66.81" arrivalSpeed="16.16" duration="53.00" routeLength="459.92" waitingTime="4.00" waitingCount="1" stopTime="0.00" timeLoss="23.68" rerouteNo="0" devices="tripinfo_random_1714597800297508859" vType="vehicle.bmw.grandtourer" speedFactor="1.17" vaporized=""/>
    <tripinfo id="random_1714597788911967443" depart="191.00" departLane="-1529_1" departPos="4.82" departSpeed="0.00" departDelay="0.00" arrival="332.00" arrivalLane="-1609_2" arrivalPos="60.92" arrivalSpeed="11.34" duration="141.00" routeLength="1236.64" waitingTime="0.00" waitingCount="0" stopTime="0.00" timeLoss="20.10" rerouteNo="0" devices="tripinfo_random_1714597788911967443" vType="vehicle.ford.mustang" speedFactor="0.83" vaporized=""/>
    <tripinfo id="random_1714597798057360725" depart="260.00" departLane="-1651_1" departPos="1.76" departSpeed="0.00" departDelay="0.00" arrival="336.00" arrivalLane="-1522_1" arrivalPos="192.03" arrivalSpeed="5.15" duration="76.00" routeLength="380.58" waitingTime="0.00" waitingCount="0" stopTime="0.00" timeLoss="6.69" rerouteNo="0" devices="tripinfo_random_1714597798057360725" vType="vehicle.diamondback.century" speedFactor="0.98" vaporized=""/>
    <tripinfo id="random_1714597787290288210" depart="183.00" departLane="-1572_1" departPos="3.81" departSpeed="0.00" departDelay="0.00" arrival="344.00" arrivalLane="-1510_2" arrivalPos="0.93" arrivalSpeed="8.71" duration="161.00" routeLength="712.92" waitingTime="73.00" waitingCount="2" stopTime="0.00" timeLoss="103.14" rerouteNo="0" devices="tripinfo_random_1714597787290288210" vType="vehicle.audi.a2" speedFactor="1.12" vaporized=""/>
    <tripinfo id="random_1714597783339939331" depart="171.00" departLane="-1574_1" departPos="1.76" departSpeed="0.00" departDelay="0.00" arrival="350.00" arrivalLane="-1632_1" arrivalPos="41.07" arrivalSpeed="5.24" duration="179.00" routeLength="928.24" waitingTime="0.00" waitingCount="0" stopTime="0.00" timeLoss="11.90" rerouteNo="0" devices="tripinfo_random_1714597783339939331" vType="vehicle.diamondback.century" speedFactor="0.98" vaporized=""/>