<?xml version="1.0" encoding="UTF-8"?>

<!-- generated on 2024-04-22 17:03:51 by Eclipse SUMO GUI Version 1.19.0
<configuration xmlns:xsi="http://www.w3.org/2001/XMLSchema-instance" xsi:noNamespaceSchemaLocation="http://sumo.dlr.de/xsd/sumoConfiguration.xsd">

    <input>
        <net-file value="../Adapters/co_simulation/sumo_configuration/simple-map/aveiro.net.xml"/>
        <route-files value="../Adapters/co_simulation/sumo_configuration/simple-map/carlavtypes.rou.xml,../Adapters/co_simulation/sumo_configuration/simple-map/simple-map.rou.xml"/>
    </input>

    <output>
        <tripinfo-output value="tripinfo.xml"/>
    </output>

    <traci_server>
        <remote-port value="39967"/>
        <num-clients value="1"/>
    </traci_server>

    <gui_only>
        <gui-settings-file value="../Adapters/co_simulation/sumo_configuration/simple-map/simple-map.view.xml"/>
        <quit-on-end value="true"/>
    </gui_only>

</configuration>
-->

<tripinfos xmlns:xsi="http://www.w3.org/2001/XMLSchema-instance" xsi:noNamespaceSchemaLocation="http://sumo.dlr.de/xsd/tripinfo_file.xsd">
</tripinfos>
